<?xml version="1.0" encoding="UTF-8"?>

<!-- generated on 2025-04-27 19:23:25 by Eclipse SUMO GUI Version 1.22.0
<sumoConfiguration xmlns:xsi="http://www.w3.org/2001/XMLSchema-instance" xsi:noNamespaceSchemaLocation="http://sumo.dlr.de/xsd/sumoConfiguration.xsd">

    <input>
        <net-file value="c:\Users\tinaabishegan\Documents\DIA\jk\code\acosta\acosta_buslanes.net.xml"/>
        <route-files value="c:\Users\tinaabishegan\Documents\DIA\jk\code\acosta\acosta.rou.xml,c:\Users\tinaabishegan\Documents\DIA\jk\code\acosta\acosta_busses.rou.xml"/>
        <additional-files value="c:\Users\tinaabishegan\Documents\DIA\jk\code\acosta\acosta_vtypes.add.xml,c:\Users\tinaabishegan\Documents\DIA\jk\code\acosta\acosta_detectors.add.xml,c:\Users\tinaabishegan\Documents\DIA\jk\code\acosta\acosta_bus_stops.add.xml,c:\Users\tinaabishegan\Documents\DIA\jk\code\acosta\acosta_tls.add.xml"/>
    </input>

    <output>
        <tripinfo-output value="c:\Users\tinaabishegan\Documents\DIA\jk\code\acosta\tripinfos.xml"/>
    </output>

    <processing>
        <time-to-teleport value="300"/>
        <waiting-time-memory value="3600"/>
        <max-depart-delay value="100000"/>
    </processing>

    <report>
        <no-warnings value="true"/>
        <log value="../output/sumo.log"/>
        <message-log value="../output/sumo_messages.log"/>
        <error-log value="../output/sumo_errors.log"/>
        <no-step-log value="true"/>
    </report>

    <traci_server>
        <remote-port value="59883"/>
    </traci_server>

    <gui_only>
        <gui-settings-file value="c:\Users\tinaabishegan\Documents\DIA\jk\code\acosta\settings.gui.xml"/>
    </gui_only>

</sumoConfiguration>
-->

<tripinfos xmlns:xsi="http://www.w3.org/2001/XMLSchema-instance" xsi:noNamespaceSchemaLocation="http://sumo.dlr.de/xsd/tripinfo_file.xsd">
    <tripinfo id="Audinot_7_0" depart="0.00" departLane="131_0" departPos="0.00" departSpeed="0.00" departDelay="0.00" arrival="94.00" arrivalLane="209_0" arrivalPos="395.59" arrivalSpeed="12.67" duration="94.00" routeLength="873.23" waitingTime="13.00" waitingCount="1" stopTime="0.00" timeLoss="27.97" rerouteNo="0" devices="tripinfo_Audinot_7_0" vType="passenger4" speedFactor="0.98" vaporized=""/>
    <tripinfo id="Togliatti_2_8" depart="11.00" departLane="85_0" departPos="0.00" departSpeed="0.00" departDelay="0.00" arrival="106.00" arrivalLane="77[1][1]_0" arrivalPos="463.98" arrivalSpeed="14.53" duration="95.00" routeLength="1145.48" waitingTime="0.00" waitingCount="0" stopTime="0.00" timeLoss="18.01" rerouteNo="0" devices="tripinfo_Togliatti_2_8" vType="passenger2a" speedFactor="1.10" vaporized=""/>
    <tripinfo id="Pepoli_8_16" depart="27.00" departLane="210_0" departPos="0.00" departSpeed="0.00" departDelay="0.00" arrival="107.00" arrivalLane="134b_0" arrivalPos="156.17" arrivalSpeed="14.36" duration="80.00" routeLength="692.71" waitingTime="13.00" waitingCount="2" stopTime="0.00" timeLoss="33.01" rerouteNo="0" devices="tripinfo_Pepoli_8_16" vType="passenger1" speedFactor="1.09" vaporized=""/>
    <tripinfo id="Silvani_11_1" depart="3.00" departLane="203[0]_0" departPos="0.00" departSpeed="0.00" departDelay="1.00" arrival="113.00" arrivalLane="114_0" arrivalPos="692.70" arrivalSpeed="12.60" duration="110.00" routeLength="1114.25" waitingTime="7.00" waitingCount="1" stopTime="0.00" timeLoss="22.42" rerouteNo="0" devices="tripinfo_Silvani_11_1" vType="passenger2b" speedFactor="0.92" vaporized=""/>
    <tripinfo id="Togliatti_12_15" depart="21.00" departLane="85_2" departPos="0.00" departSpeed="0.00" departDelay="0.00" arrival="115.00" arrivalLane="136_0" arrivalPos="186.20" arrivalSpeed="12.59" duration="94.00" routeLength="909.95" waitingTime="6.00" waitingCount="1" stopTime="0.00" timeLoss="21.80" rerouteNo="0" devices="tripinfo_Togliatti_12_15" vType="passenger3" speedFactor="0.94" vaporized=""/>
    <tripinfo id="Pepoli_8_21" depart="36.00" departLane="210_0" departPos="0.00" departSpeed="0.00" departDelay="0.00" arrival="115.00" arrivalLane="134b_0" arrivalPos="156.17" arrivalSpeed="16.79" duration="79.00" routeLength="692.71" waitingTime="11.00" waitingCount="2" stopTime="0.00" timeLoss="38.14" rerouteNo="0" devices="tripinfo_Pepoli_8_21" vType="passenger1" speedFactor="1.25" vaporized=""/>
    <tripinfo id="Togliatti_12_24" depart="34.00" departLane="85_2" departPos="0.00" departSpeed="0.00" departDelay="0.00" arrival="117.00" arrivalLane="136_0" arrivalPos="186.20" arrivalSpeed="13.02" duration="83.00" routeLength="909.95" waitingTime="0.00" waitingCount="0" stopTime="0.00" timeLoss="11.58" rerouteNo="0" devices="tripinfo_Togliatti_12_24" vType="passenger1" speedFactor="0.95" vaporized=""/>
    <tripinfo id="Costa_12_0" depart="0.00" departLane="78[0]_0" departPos="0.00" departSpeed="0.00" departDelay="0.00" arrival="118.00" arrivalLane="136_0" arrivalPos="186.20" arrivalSpeed="13.96" duration="118.00" routeLength="1416.45" waitingTime="0.00" waitingCount="0" stopTime="0.00" timeLoss="21.94" rerouteNo="0" devices="tripinfo_Costa_12_0" vType="passenger1" speedFactor="1.08" vaporized=""/>
    <tripinfo id="Silvani_11_0" depart="0.00" departLane="203[0]_0" departPos="0.00" departSpeed="0.00" departDelay="0.00" arrival="118.00" arrivalLane="114_0" arrivalPos="692.70" arrivalSpeed="10.92" duration="118.00" routeLength="1114.25" waitingTime="8.00" waitingCount="1" stopTime="0.00" timeLoss="20.62" rerouteNo="0" devices="tripinfo_Silvani_11_0" vType="passenger3" speedFactor="0.83" vaporized=""/>
    <tripinfo id="Pepoli_8_23" depart="39.00" departLane="210_0" departPos="0.00" departSpeed="0.00" departDelay="0.00" arrival="119.00" arrivalLane="134b_0" arrivalPos="156.17" arrivalSpeed="14.93" duration="80.00" routeLength="692.71" waitingTime="10.00" waitingCount="2" stopTime="0.00" timeLoss="34.48" rerouteNo="0" devices="tripinfo_Pepoli_8_23" vType="passenger1" speedFactor="1.13" vaporized=""/>
    <tripinfo id="Costa_12_1" depart="7.00" departLane="78[0]_0" departPos="0.00" departSpeed="0.00" departDelay="5.00" arrival="120.00" arrivalLane="136_0" arrivalPos="186.20" arrivalSpeed="14.65" duration="113.00" routeLength="1416.45" waitingTime="0.00" waitingCount="0" stopTime="0.00" timeLoss="17.32" rerouteNo="0" devices="tripinfo_Costa_12_1" vType="passenger2b" speedFactor="1.09" vaporized=""/>
    <tripinfo id="Costa_1_4" depart="15.00" departLane="78[0]_0" departPos="0.00" departSpeed="0.00" departDelay="5.00" arrival="124.00" arrivalLane="86_2" arrivalPos="321.19" arrivalSpeed="13.58" duration="109.00" routeLength="1185.38" waitingTime="4.00" waitingCount="1" stopTime="0.00" timeLoss="20.96" rerouteNo="0" devices="tripinfo_Costa_1_4" vType="passenger2a" speedFactor="0.99" vaporized=""/>
    <tripinfo id="Costa_1_2" depart="9.00" departLane="78[0]_0" departPos="0.00" departSpeed="0.00" departDelay="4.00" arrival="125.00" arrivalLane="86_0" arrivalPos="321.19" arrivalSpeed="13.33" duration="116.00" routeLength="1191.74" waitingTime="14.00" waitingCount="1" stopTime="0.00" timeLoss="29.54" rerouteNo="0" devices="tripinfo_Costa_1_2" vType="passenger2b" speedFactor="1.02" vaporized=""/>
    <tripinfo id="Costa_3_21" depart="55.00" departLane="78[0]_0" departPos="0.00" departSpeed="0.00" departDelay="1.00" arrival="128.00" arrivalLane="14_0" arrivalPos="77.26" arrivalSpeed="14.93" duration="73.00" routeLength="850.23" waitingTime="0.00" waitingCount="0" stopTime="0.00" timeLoss="17.85" rerouteNo="0" devices="tripinfo_Costa_3_21" vType="passenger1" speedFactor="1.13" vaporized=""/>
    <tripinfo id="Silvani_11_8" depart="18.00" departLane="203[0]_0" departPos="0.00" departSpeed="0.00" departDelay="0.00" arrival="131.00" arrivalLane="114_0" arrivalPos="692.70" arrivalSpeed="13.34" duration="113.00" routeLength="1114.25" waitingTime="12.00" waitingCount="1" stopTime="0.00" timeLoss="28.77" rerouteNo="0" devices="tripinfo_Silvani_11_8" vType="passenger3" speedFactor="0.96" vaporized=""/>
    <tripinfo id="Pepoli_8_25" depart="42.00" departLane="210_0" departPos="0.00" departSpeed="0.00" departDelay="0.00" arrival="137.00" arrivalLane="134b_0" arrivalPos="156.17" arrivalSpeed="13.80" duration="95.00" routeLength="692.71" waitingTime="19.00" waitingCount="2" stopTime="0.00" timeLoss="45.60" rerouteNo="0" devices="tripinfo_Pepoli_8_25" vType="passenger2a" speedFactor="1.03" vaporized=""/>
    <tripinfo id="XXI_Aprile_2_12" depart="42.00" departLane="13_0" departPos="0.00" departSpeed="0.00" departDelay="0.00" arrival="137.00" arrivalLane="77[1][1]_0" arrivalPos="463.98" arrivalSpeed="15.02" duration="95.00" routeLength="976.81" waitingTime="9.00" waitingCount="1" stopTime="0.00" timeLoss="30.39" rerouteNo="0" devices="tripinfo_XXI_Aprile_2_12" vType="passenger4" speedFactor="1.10" vaporized=""/>
    <tripinfo id="Pepoli_8_28" depart="48.00" departLane="210_0" departPos="0.00" departSpeed="0.00" departDelay="0.00" arrival="139.00" arrivalLane="134b_0" arrivalPos="156.17" arrivalSpeed="14.60" duration="91.00" routeLength="692.71" waitingTime="14.00" waitingCount="2" stopTime="0.00" timeLoss="45.37" rerouteNo="0" devices="tripinfo_Pepoli_8_28" vType="passenger3" speedFactor="1.13" vaporized=""/>
    <tripinfo id="Silvani_11_9" depart="21.00" departLane="203[0]_0" departPos="0.00" departSpeed="0.00" departDelay="0.00" arrival="140.00" arrivalLane="114_0" arrivalPos="692.70" arrivalSpeed="15.88" duration="119.00" routeLength="1114.25" waitingTime="22.00" waitingCount="2" stopTime="0.00" timeLoss="48.52" rerouteNo="0" devices="tripinfo_Silvani_11_9" vType="passenger4" speedFactor="1.15" vaporized=""/>
    <tripinfo id="Costa_12_3" depart="12.00" departLane="78[0]_0" departPos="0.00" departSpeed="0.00" departDelay="5.00" arrival="145.00" arrivalLane="136_0" arrivalPos="186.20" arrivalSpeed="13.84" duration="133.00" routeLength="1413.62" waitingTime="7.00" waitingCount="1" stopTime="0.00" timeLoss="29.99" rerouteNo="0" devices="tripinfo_Costa_12_3" vType="passenger1" speedFactor="1.01" vaporized=""/>
    <tripinfo id="Costa_1_15" depart="39.00" departLane="78[0]_0" departPos="0.00" departSpeed="0.00" departDelay="0.00" arrival="147.00" arrivalLane="86_1" arrivalPos="321.19" arrivalSpeed="15.65" duration="108.00" routeLength="1191.74" waitingTime="7.00" waitingCount="1" stopTime="0.00" timeLoss="33.59" rerouteNo="0" devices="tripinfo_Costa_1_15" vType="passenger4" speedFactor="1.18" vaporized=""/>
    <tripinfo id="Costa_1_17" depart="44.00" departLane="78[0]_0" departPos="0.00" departSpeed="0.00" departDelay="0.00" arrival="148.00" arrivalLane="86_2" arrivalPos="321.19" arrivalSpeed="13.17" duration="104.00" routeLength="1182.55" waitingTime="1.00" waitingCount="1" stopTime="0.00" timeLoss="19.18" rerouteNo="0" devices="tripinfo_Costa_1_17" vType="passenger1" speedFactor="1.03" vaporized=""/>
    <tripinfo id="Togliatti_3_18" depart="25.00" departLane="85_0" departPos="0.00" departSpeed="0.00" departDelay="0.00" arrival="150.00" arrivalLane="14_0" arrivalPos="77.26" arrivalSpeed="12.47" duration="125.00" routeLength="1110.28" waitingTime="18.00" waitingCount="2" stopTime="0.00" timeLoss="35.94" rerouteNo="0" devices="tripinfo_Togliatti_3_18" vType="passenger2a" speedFactor="0.92" vaporized=""/>
    <tripinfo id="Silvani_11_12" depart="28.00" departLane="203[0]_0" departPos="0.00" departSpeed="0.00" departDelay="0.00" arrival="150.00" arrivalLane="114_0" arrivalPos="692.70" arrivalSpeed="12.46" duration="122.00" routeLength="1114.25" waitingTime="20.00" waitingCount="2" stopTime="0.00" timeLoss="39.59" rerouteNo="0" devices="tripinfo_Silvani_11_12" vType="passenger2b" speedFactor="0.98" vaporized=""/>
    <tripinfo id="Costa_1_19" depart="50.00" departLane="78[0]_0" departPos="0.00" departSpeed="0.00" departDelay="1.00" arrival="150.00" arrivalLane="86_2" arrivalPos="321.19" arrivalSpeed="15.95" duration="100.00" routeLength="1185.38" waitingTime="1.00" waitingCount="1" stopTime="0.00" timeLoss="27.22" rerouteNo="0" devices="tripinfo_Costa_1_19" vType="passenger2a" speedFactor="1.21" vaporized=""/>
    <tripinfo id="XXI_Aprile_12_6" depart="21.00" departLane="13_0" departPos="0.00" departSpeed="0.00" departDelay="0.00" arrival="151.00" arrivalLane="136_0" arrivalPos="186.20" arrivalSpeed="12.24" duration="130.00" routeLength="1343.89" waitingTime="3.00" waitingCount="1" stopTime="0.00" timeLoss="25.08" rerouteNo="0" devices="tripinfo_XXI_Aprile_12_6" vType="passenger1" speedFactor="0.94" vaporized=""/>
    <tripinfo id="Togliatti_12_48" depart="68.00" departLane="85_2" departPos="0.00" departSpeed="0.00" departDelay="0.00" arrival="156.00" arrivalLane="136_0" arrivalPos="186.20" arrivalSpeed="14.23" duration="88.00" routeLength="909.95" waitingTime="5.00" waitingCount="1" stopTime="0.00" timeLoss="23.01" rerouteNo="0" devices="tripinfo_Togliatti_12_48" vType="passenger2a" speedFactor="1.04" vaporized=""/>
    <tripinfo id="Togliatti_12_59" depart="84.00" departLane="85_2" departPos="0.00" departSpeed="0.00" departDelay="0.00" arrival="158.00" arrivalLane="136_0" arrivalPos="186.20" arrivalSpeed="15.03" duration="74.00" routeLength="909.95" waitingTime="0.00" waitingCount="0" stopTime="0.00" timeLoss="14.29" rerouteNo="0" devices="tripinfo_Togliatti_12_59" vType="passenger1" speedFactor="1.12" vaporized=""/>
    <tripinfo id="Turati_3_2" depart="69.00" departLane="195_0" departPos="0.00" departSpeed="0.00" departDelay="0.00" arrival="161.00" arrivalLane="14_0" arrivalPos="77.26" arrivalSpeed="13.13" duration="92.00" routeLength="947.57" waitingTime="8.00" waitingCount="1" stopTime="0.00" timeLoss="22.18" rerouteNo="0" devices="tripinfo_Turati_3_2" vType="ignoring1" speedFactor="1.00" vaporized=""/>
    <tripinfo id="Pepoli_3_0" depart="0.00" departLane="210_2" departPos="0.00" departSpeed="0.00" departDelay="0.00" arrival="162.00" arrivalLane="14_0" arrivalPos="77.26" arrivalSpeed="12.86" duration="162.00" routeLength="1941.55" waitingTime="0.00" waitingCount="0" stopTime="0.00" timeLoss="20.62" rerouteNo="0" devices="tripinfo_Pepoli_3_0" vType="ignoring2b" speedFactor="1.00" vaporized=""/>
    <tripinfo id="Silvani_11_14" depart="33.00" departLane="203[0]_0" departPos="0.00" departSpeed="0.00" departDelay="0.00" arrival="162.00" arrivalLane="114_1" arrivalPos="692.70" arrivalSpeed="14.79" duration="129.00" routeLength="1114.25" waitingTime="29.00" waitingCount="3" stopTime="0.00" timeLoss="58.49" rerouteNo="0" devices="tripinfo_Silvani_11_14" vType="passenger3" speedFactor="1.14" vaporized=""/>
    <tripinfo id="Silvani_11_13" depart="30.00" departLane="203[0]_0" departPos="0.00" departSpeed="0.00" departDelay="0.00" arrival="163.00" arrivalLane="114_0" arrivalPos="692.70" arrivalSpeed="14.35" duration="133.00" routeLength="1114.25" waitingTime="32.00" waitingCount="3" stopTime="0.00" timeLoss="56.83" rerouteNo="0" devices="tripinfo_Silvani_11_13" vType="passenger1" speedFactor="1.06" vaporized=""/>
    <tripinfo id="XXI_Aprile_1_18" depart="64.00" departLane="13_0" departPos="0.00" departSpeed="0.00" departDelay="0.00" arrival="165.00" arrivalLane="86_2" arrivalPos="321.19" arrivalSpeed="14.75" duration="101.00" routeLength="1112.82" waitingTime="8.00" waitingCount="1" stopTime="0.00" timeLoss="29.79" rerouteNo="0" devices="tripinfo_XXI_Aprile_1_18" vType="passenger2a" speedFactor="1.15" vaporized=""/>
    <tripinfo id="Costa_12_7" depart="19.00" departLane="78[0]_0" departPos="0.00" departSpeed="0.00" departDelay="1.00" arrival="168.00" arrivalLane="136_0" arrivalPos="186.20" arrivalSpeed="14.98" duration="149.00" routeLength="1416.45" waitingTime="19.00" waitingCount="2" stopTime="0.00" timeLoss="53.61" rerouteNo="0" devices="tripinfo_Costa_12_7" vType="passenger5" speedFactor="1.10" vaporized=""/>
    <tripinfo id="Togliatti_3_31" depart="44.00" departLane="85_0" departPos="0.00" departSpeed="0.00" departDelay="0.00" arrival="170.00" arrivalLane="14_0" arrivalPos="77.26" arrivalSpeed="14.10" duration="126.00" routeLength="1110.28" waitingTime="20.00" waitingCount="3" stopTime="0.00" timeLoss="46.61" rerouteNo="0" devices="tripinfo_Togliatti_3_31" vType="passenger1" speedFactor="1.04" vaporized=""/>
    <tripinfo id="Costa_12_11" depart="29.00" departLane="78[0]_0" departPos="0.00" departSpeed="0.00" departDelay="1.00" arrival="171.00" arrivalLane="136_0" arrivalPos="186.20" arrivalSpeed="13.90" duration="142.00" routeLength="1413.62" waitingTime="16.00" waitingCount="1" stopTime="0.00" timeLoss="45.84" rerouteNo="0" devices="tripinfo_Costa_12_11" vType="passenger2a" speedFactor="1.08" vaporized=""/>
    <tripinfo id="Togliatti_2_32" depart="47.00" departLane="85_0" departPos="0.00" departSpeed="0.00" departDelay="2.00" arrival="171.00" arrivalLane="77[1][1]_0" arrivalPos="463.98" arrivalSpeed="13.80" duration="124.00" routeLength="1145.48" waitingTime="21.00" waitingCount="2" stopTime="0.00" timeLoss="42.38" rerouteNo="0" devices="tripinfo_Togliatti_2_32" vType="passenger3" speedFactor="1.04" vaporized=""/>
    <tripinfo id="XXI_Aprile_1_17" depart="60.00" departLane="13_0" departPos="0.00" departSpeed="0.00" departDelay="0.00" arrival="171.00" arrivalLane="86_0" arrivalPos="321.19" arrivalSpeed="13.06" duration="111.00" routeLength="1119.18" waitingTime="2.00" waitingCount="1" stopTime="0.00" timeLoss="23.64" rerouteNo="0" devices="tripinfo_XXI_Aprile_1_17" vType="passenger3" speedFactor="0.94" vaporized=""/>
    <tripinfo id="Pepoli_8_44" depart="75.00" departLane="210_0" departPos="0.00" departSpeed="0.00" departDelay="0.00" arrival="173.00" arrivalLane="134b_0" arrivalPos="156.17" arrivalSpeed="10.82" duration="98.00" routeLength="692.71" waitingTime="14.00" waitingCount="2" stopTime="0.00" timeLoss="37.96" rerouteNo="0" devices="tripinfo_Pepoli_8_44" vType="passenger3" speedFactor="0.85" vaporized=""/>
    <tripinfo id="Silvani_11_16" depart="37.00" departLane="203[0]_0" departPos="0.00" departSpeed="0.00" departDelay="0.00" arrival="175.00" arrivalLane="114_0" arrivalPos="692.70" arrivalSpeed="14.08" duration="138.00" routeLength="1114.25" waitingTime="28.00" waitingCount="4" stopTime="0.00" timeLoss="58.54" rerouteNo="0" devices="tripinfo_Silvani_11_16" vType="passenger3" speedFactor="1.02" vaporized=""/>
    <tripinfo id="XXI_Aprile_7_0" depart="0.00" departLane="8_0" departPos="0.00" departSpeed="0.00" departDelay="0.00" arrival="182.00" arrivalLane="209_0" arrivalPos="395.59" arrivalSpeed="13.25" duration="182.00" routeLength="2111.89" waitingTime="0.00" waitingCount="0" stopTime="0.00" timeLoss="28.52" rerouteNo="0" devices="tripinfo_XXI_Aprile_7_0" vType="passenger1" speedFactor="1.01" vaporized=""/>
    <tripinfo id="Silvani_11_17" depart="40.00" departLane="203[0]_0" departPos="0.00" departSpeed="0.00" departDelay="0.00" arrival="182.00" arrivalLane="114_0" arrivalPos="692.70" arrivalSpeed="12.20" duration="142.00" routeLength="1114.25" waitingTime="20.00" waitingCount="4" stopTime="0.00" timeLoss="55.82" rerouteNo="0" devices="tripinfo_Silvani_11_17" vType="passenger3" speedFactor="0.94" vaporized=""/>
    <tripinfo id="XXI_Aprile_7_1" depart="3.00" departLane="8_0" departPos="0.00" departSpeed="0.00" departDelay="0.00" arrival="186.00" arrivalLane="209_0" arrivalPos="395.59" arrivalSpeed="12.50" duration="183.00" routeLength="2111.89" waitingTime="0.00" waitingCount="0" stopTime="0.00" timeLoss="25.61" rerouteNo="0" devices="tripinfo_XXI_Aprile_7_1" vType="passenger1" speedFactor="0.99" vaporized=""/>
    <tripinfo id="Pepoli_8_48" depart="82.00" departLane="210_0" departPos="0.00" departSpeed="0.00" departDelay="0.00" arrival="186.00" arrivalLane="134b_0" arrivalPos="156.17" arrivalSpeed="14.69" duration="104.00" routeLength="692.71" waitingTime="25.00" waitingCount="3" stopTime="0.00" timeLoss="58.08" rerouteNo="0" devices="tripinfo_Pepoli_8_48" vType="passenger2a" speedFactor="1.11" vaporized=""/>
    <tripinfo id="Costa_12_13" depart="33.00" departLane="78[0]_0" departPos="0.00" departSpeed="0.00" departDelay="0.00" arrival="187.00" arrivalLane="136_0" arrivalPos="186.20" arrivalSpeed="14.99" duration="154.00" routeLength="1413.62" waitingTime="29.00" waitingCount="2" stopTime="0.00" timeLoss="58.91" rerouteNo="0" devices="tripinfo_Costa_12_13" vType="passenger2b" speedFactor="1.10" vaporized=""/>
    <tripinfo id="Pepoli_11_6" depart="11.00" departLane="210_1" departPos="0.00" departSpeed="0.00" departDelay="1.00" arrival="189.00" arrivalLane="114_0" arrivalPos="692.70" arrivalSpeed="12.72" duration="178.00" routeLength="1735.40" waitingTime="25.00" waitingCount="2" stopTime="0.00" timeLoss="48.53" rerouteNo="0" devices="tripinfo_Pepoli_11_6" vType="passenger1" speedFactor="0.97" vaporized=""/>
    <tripinfo id="Silvani_7_4" depart="9.00" departLane="203[0]_1" departPos="0.00" departSpeed="0.00" departDelay="0.00" arrival="190.00" arrivalLane="209_0" arrivalPos="395.59" arrivalSpeed="14.61" duration="181.00" routeLength="1451.40" waitingTime="56.00" waitingCount="4" stopTime="0.00" timeLoss="90.12" rerouteNo="0" devices="tripinfo_Silvani_7_4" vType="passenger2a" speedFactor="1.15" vaporized=""/>
    <tripinfo id="Costa_3_33" depart="88.00" departLane="78[0]_0" departPos="0.00" departSpeed="0.00" departDelay="2.00" arrival="190.00" arrivalLane="14_0" arrivalPos="77.26" arrivalSpeed="12.21" duration="102.00" routeLength="850.23" waitingTime="5.00" waitingCount="1" stopTime="0.00" timeLoss="35.99" rerouteNo="0" devices="tripinfo_Costa_3_33" vType="passenger2b" speedFactor="0.95" vaporized=""/>
    <tripinfo id="Pepoli_8_51" depart="87.00" departLane="210_0" departPos="0.00" departSpeed="0.00" departDelay="0.00" arrival="191.00" arrivalLane="134b_0" arrivalPos="156.17" arrivalSpeed="12.81" duration="104.00" routeLength="692.71" waitingTime="22.00" waitingCount="2" stopTime="0.00" timeLoss="49.48" rerouteNo="0" devices="tripinfo_Pepoli_8_51" vType="passenger1" speedFactor="0.94" vaporized=""/>
    <tripinfo id="Costa_3_38" depart="102.00" departLane="78[0]_0" departPos="0.00" departSpeed="0.00" departDelay="3.00" arrival="191.00" arrivalLane="14_0" arrivalPos="77.26" arrivalSpeed="12.01" duration="89.00" routeLength="850.23" waitingTime="0.00" waitingCount="0" stopTime="0.00" timeLoss="24.10" rerouteNo="0" devices="tripinfo_Costa_3_38" vType="passenger1" speedFactor="0.96" vaporized=""/>
    <tripinfo id="Silvani_7_7" depart="16.00" departLane="203[0]_1" departPos="0.00" departSpeed="0.00" departDelay="0.00" arrival="192.00" arrivalLane="209_0" arrivalPos="395.59" arrivalSpeed="13.82" duration="176.00" routeLength="1451.40" waitingTime="46.00" waitingCount="3" stopTime="0.00" timeLoss="77.08" rerouteNo="0" devices="tripinfo_Silvani_7_7" vType="passenger2a" speedFactor="1.06" vaporized=""/>
    <tripinfo id="Silvani_7_11" depart="25.00" departLane="203[0]_0" departPos="0.00" departSpeed="0.00" departDelay="0.00" arrival="193.00" arrivalLane="209_2" arrivalPos="395.59" arrivalSpeed="14.34" duration="168.00" routeLength="1451.40" waitingTime="34.00" waitingCount="4" stopTime="0.00" timeLoss="66.20" rerouteNo="0" devices="tripinfo_Silvani_7_11" vType="passenger1" speedFactor="1.03" vaporized=""/>
    <tripinfo id="Silvani_11_24" depart="56.00" departLane="203[0]_0" departPos="0.00" departSpeed="0.00" departDelay="0.00" arrival="196.00" arrivalLane="114_0" arrivalPos="692.70" arrivalSpeed="13.84" duration="140.00" routeLength="1114.25" waitingTime="26.00" waitingCount="3" stopTime="0.00" timeLoss="63.63" rerouteNo="0" devices="tripinfo_Silvani_11_24" vType="passenger1" speedFactor="1.06" vaporized=""/>
    <tripinfo id="Silvani_7_2" depart="4.00" departLane="203[0]_1" departPos="0.00" departSpeed="0.00" departDelay="0.00" arrival="197.00" arrivalLane="209_0" arrivalPos="395.59" arrivalSpeed="13.01" duration="193.00" routeLength="1454.90" waitingTime="52.00" waitingCount="4" stopTime="0.00" timeLoss="82.54" rerouteNo="0" devices="tripinfo_Silvani_7_2" vType="passenger1" speedFactor="0.95" vaporized=""/>
    <tripinfo id="Costa_12_9" depart="26.00" departLane="78[0]_0" departPos="0.00" departSpeed="0.00" departDelay="3.00" arrival="197.00" arrivalLane="136_0" arrivalPos="186.20" arrivalSpeed="11.54" duration="171.00" routeLength="1416.45" waitingTime="27.00" waitingCount="2" stopTime="0.00" timeLoss="56.38" rerouteNo="0" devices="tripinfo_Costa_12_9" vType="passenger3" speedFactor="0.91" vaporized=""/>
    <tripinfo id="Costa_1_28" depart="75.00" departLane="78[0]_0" departPos="0.00" departSpeed="0.00" departDelay="2.00" arrival="197.00" arrivalLane="86_1" arrivalPos="321.19" arrivalSpeed="12.55" duration="122.00" routeLength="1185.38" waitingTime="7.00" waitingCount="2" stopTime="0.00" timeLoss="26.03" rerouteNo="0" devices="tripinfo_Costa_1_28" vType="passenger2a" speedFactor="0.91" vaporized=""/>
    <tripinfo id="XXI_Aprile_1_27" depart="96.00" departLane="13_0" departPos="0.00" departSpeed="0.00" departDelay="0.00" arrival="198.00" arrivalLane="86_2" arrivalPos="321.19" arrivalSpeed="12.98" duration="102.00" routeLength="1112.82" waitingTime="0.00" waitingCount="0" stopTime="0.00" timeLoss="18.43" rerouteNo="0" devices="tripinfo_XXI_Aprile_1_27" vType="passenger1" speedFactor="0.98" vaporized=""/>
    <tripinfo id="Pepoli_8_62" depart="106.00" departLane="210_0" departPos="0.00" departSpeed="0.00" departDelay="0.00" arrival="199.00" arrivalLane="134b_0" arrivalPos="156.17" arrivalSpeed="12.06" duration="93.00" routeLength="692.71" waitingTime="12.00" waitingCount="2" stopTime="0.00" timeLoss="35.70" rerouteNo="0" devices="tripinfo_Pepoli_8_62" vType="passenger1" speedFactor="0.90" vaporized=""/>
    <tripinfo id="Pepoli_11_5" depart="8.00" departLane="210_1" departPos="0.00" departSpeed="0.00" departDelay="0.00" arrival="200.00" arrivalLane="114_0" arrivalPos="692.70" arrivalSpeed="14.54" duration="192.00" routeLength="1738.36" waitingTime="39.00" waitingCount="3" stopTime="0.00" timeLoss="80.45" rerouteNo="0" devices="tripinfo_Pepoli_11_5" vType="passenger1" speedFactor="1.13" vaporized=""/>
    <tripinfo id="Togliatti_12_79" depart="112.00" departLane="85_2" departPos="0.00" departSpeed="0.00" departDelay="0.00" arrival="200.00" arrivalLane="136_0" arrivalPos="186.20" arrivalSpeed="13.80" duration="88.00" routeLength="909.95" waitingTime="6.00" waitingCount="1" stopTime="0.00" timeLoss="22.19" rerouteNo="0" devices="tripinfo_Togliatti_12_79" vType="passenger1" speedFactor="1.02" vaporized=""/>
    <tripinfo id="XXI_Aprile_7_7" depart="24.00" departLane="8_0" departPos="0.00" departSpeed="0.00" departDelay="0.00" arrival="201.00" arrivalLane="209_0" arrivalPos="395.59" arrivalSpeed="13.37" duration="177.00" routeLength="2111.89" waitingTime="0.00" waitingCount="0" stopTime="0.00" timeLoss="28.41" rerouteNo="0" devices="tripinfo_XXI_Aprile_7_7" vType="passenger1" speedFactor="1.06" vaporized=""/>
    <tripinfo id="Silvani_11_23" depart="54.00" departLane="203[0]_0" departPos="0.00" departSpeed="0.00" departDelay="0.00" arrival="202.00" arrivalLane="114_0" arrivalPos="692.70" arrivalSpeed="12.43" duration="148.00" routeLength="1114.25" waitingTime="29.00" waitingCount="3" stopTime="0.00" timeLoss="59.59" rerouteNo="0" devices="tripinfo_Silvani_11_23" vType="passenger3" speedFactor="0.91" vaporized=""/>
    <tripinfo id="Pepoli_3_2" depart="3.00" departLane="210_2" departPos="0.00" departSpeed="0.00" departDelay="0.00" arrival="204.00" arrivalLane="14_0" arrivalPos="77.26" arrivalSpeed="12.92" duration="201.00" routeLength="1941.55" waitingTime="32.00" waitingCount="3" stopTime="0.00" timeLoss="59.06" rerouteNo="0" devices="tripinfo_Pepoli_3_2" vType="ignoring1" speedFactor="1.00" vaporized=""/>
    <tripinfo id="Togliatti_2_40" depart="57.00" departLane="85_0" departPos="0.00" departSpeed="0.00" departDelay="1.00" arrival="204.00" arrivalLane="77[1][1]_0" arrivalPos="463.98" arrivalSpeed="12.39" duration="147.00" routeLength="1145.48" waitingTime="25.00" waitingCount="3" stopTime="0.00" timeLoss="58.39" rerouteNo="0" devices="tripinfo_Togliatti_2_40" vType="passenger2b" speedFactor="0.96" vaporized=""/>
    <tripinfo id="Togliatti_12_83" depart="118.00" departLane="85_2" departPos="0.00" departSpeed="0.00" departDelay="0.00" arrival="205.00" arrivalLane="136_0" arrivalPos="186.20" arrivalSpeed="13.58" duration="87.00" routeLength="909.95" waitingTime="2.00" waitingCount="1" stopTime="0.00" timeLoss="20.20" rerouteNo="0" devices="tripinfo_Togliatti_12_83" vType="passenger3" speedFactor="1.01" vaporized=""/>
    <tripinfo id="Togliatti_3_39" depart="55.00" departLane="85_0" departPos="0.00" departSpeed="0.00" departDelay="0.00" arrival="210.00" arrivalLane="14_0" arrivalPos="77.26" arrivalSpeed="13.15" duration="155.00" routeLength="1110.28" waitingTime="37.00" waitingCount="5" stopTime="0.00" timeLoss="71.30" rerouteNo="0" devices="tripinfo_Togliatti_3_39" vType="passenger2b" speedFactor="0.98" vaporized=""/>
    <tripinfo id="Pepoli_8_70" depart="121.00" departLane="210_0" departPos="0.00" departSpeed="0.00" departDelay="1.00" arrival="211.00" arrivalLane="134b_0" arrivalPos="156.17" arrivalSpeed="15.02" duration="90.00" routeLength="692.71" waitingTime="19.00" waitingCount="2" stopTime="0.00" timeLoss="44.36" rerouteNo="0" devices="tripinfo_Pepoli_8_70" vType="passenger1" speedFactor="1.11" vaporized=""/>
    <tripinfo id="Silvani_11_27" depart="63.00" departLane="203[0]_0" departPos="0.00" departSpeed="0.00" departDelay="0.00" arrival="213.00" arrivalLane="114_0" arrivalPos="692.70" arrivalSpeed="14.51" duration="150.00" routeLength="1114.25" waitingTime="34.00" waitingCount="4" stopTime="0.00" timeLoss="73.79" rerouteNo="0" devices="tripinfo_Silvani_11_27" vType="passenger2a" speedFactor="1.07" vaporized=""/>
    <tripinfo id="Costa_12_14" depart="36.00" departLane="78[0]_0" departPos="0.00" departSpeed="0.00" departDelay="0.00" arrival="214.00" arrivalLane="136_0" arrivalPos="186.20" arrivalSpeed="13.50" duration="178.00" routeLength="1413.62" waitingTime="42.00" waitingCount="3" stopTime="0.00" timeLoss="79.65" rerouteNo="0" devices="tripinfo_Costa_12_14" vType="passenger3" speedFactor="1.06" vaporized=""/>