<?xml version="1.0" encoding="UTF-8"?>

<!-- generated on 2025-04-18 11:53:24 by Eclipse SUMO sumo Version 1.22.0
<sumoConfiguration xmlns:xsi="http://www.w3.org/2001/XMLSchema-instance" xsi:noNamespaceSchemaLocation="http://sumo.dlr.de/xsd/sumoConfiguration.xsd">

    <input>
        <net-file value="acosta_buslanes.net.xml"/>
        <route-files value="route_mixed_episode_1000.rou.xml"/>
        <additional-files value="acosta_vtypes.add.xml,acosta_detectors.add.xml,acosta_bus_stops.add.xml,acosta_tls.add.xml"/>
    </input>

    <output>
        <tripinfo-output value="tripinfos.xml"/>
    </output>

    <processing>
        <time-to-teleport value="300"/>
        <waiting-time-memory value="3600"/>
        <max-depart-delay value="100000"/>
    </processing>

    <report>
        <no-warnings value="true"/>
        <log value="../output/sumo.log"/>
        <message-log value="../output/sumo_messages.log"/>
        <error-log value="../output/sumo_errors.log"/>
        <no-step-log value="true"/>
    </report>

    <traci_server>
        <remote-port value="55847"/>
    </traci_server>

    <gui_only>
        <gui-settings-file value="settings.gui.xml"/>
    </gui_only>

</sumoConfiguration>
-->

<tripinfos xmlns:xsi="http://www.w3.org/2001/XMLSchema-instance" xsi:noNamespaceSchemaLocation="http://sumo.dlr.de/xsd/tripinfo_file.xsd">
    <tripinfo id="heavy_3157" depart="15.00" departLane="56b_0" departPos="5.10" departSpeed="0.00" departDelay="0.20" arrival="54.00" arrivalLane="49_0" arrivalPos="152.38" arrivalSpeed="14.54" duration="39.00" routeLength="503.08" waitingTime="0.00" waitingCount="0" stopTime="0.00" timeLoss="5.91" rerouteNo="0" devices="tripinfo_heavy_3157" vType="DEFAULT_VEHTYPE" speedFactor="1.13" vaporized=""/>
    <tripinfo id="heavy_3149" depart="5.00" departLane="119_0" departPos="5.10" departSpeed="0.00" departDelay="0.60" arrival="77.00" arrivalLane="209_0" arrivalPos="396.59" arrivalSpeed="13.93" duration="72.00" routeLength="823.87" waitingTime="0.00" waitingCount="0" stopTime="0.00" timeLoss="13.49" rerouteNo="0" devices="tripinfo_heavy_3149" vType="DEFAULT_VEHTYPE" speedFactor="1.05" vaporized=""/>
    <tripinfo id="heavy_3147" depart="3.00" departLane="9_0" departPos="5.10" departSpeed="0.00" departDelay="0.60" arrival="83.00" arrivalLane="28_0" arrivalPos="60.54" arrivalSpeed="12.43" duration="80.00" routeLength="849.64" waitingTime="0.00" waitingCount="0" stopTime="0.00" timeLoss="12.24" rerouteNo="0" devices="tripinfo_heavy_3147" vType="DEFAULT_VEHTYPE" speedFactor="0.94" vaporized=""/>
    <tripinfo id="medium_1044" depart="58.00" departLane="204b[0]_0" departPos="0.20" departSpeed="0.00" departDelay="0.50" arrival="83.00" arrivalLane="54_0" arrivalPos="301.28" arrivalSpeed="14.71" duration="25.00" routeLength="310.70" waitingTime="0.00" waitingCount="0" stopTime="0.00" timeLoss="3.39" rerouteNo="0" devices="tripinfo_medium_1044" vType="DEFAULT_VEHTYPE" speedFactor="1.10" vaporized=""/>
    <tripinfo id="light_9" depart="32.00" departLane="118_0" departPos="5.10" departSpeed="0.00" departDelay="0.00" arrival="85.00" arrivalLane="60_0" arrivalPos="209.90" arrivalSpeed="11.06" duration="53.00" routeLength="556.02" waitingTime="0.00" waitingCount="0" stopTime="0.00" timeLoss="6.16" rerouteNo="0" devices="tripinfo_light_9" vType="DEFAULT_VEHTYPE" speedFactor="0.88" vaporized=""/>
    <tripinfo id="medium_1025" depart="15.00" departLane="119_0" departPos="5.10" departSpeed="0.00" departDelay="0.50" arrival="92.00" arrivalLane="209_0" arrivalPos="396.59" arrivalSpeed="11.81" duration="77.00" routeLength="823.87" waitingTime="0.00" waitingCount="0" stopTime="0.00" timeLoss="10.32" rerouteNo="0" devices="tripinfo_medium_1025" vType="DEFAULT_VEHTYPE" speedFactor="0.92" vaporized=""/>
    <tripinfo id="medium_1026" depart="21.00" departLane="8_0" departPos="5.10" departSpeed="0.00" departDelay="0.00" arrival="92.00" arrivalLane="74_0" arrivalPos="255.03" arrivalSpeed="15.88" duration="71.00" routeLength="992.63" waitingTime="0.00" waitingCount="0" stopTime="0.00" timeLoss="9.00" rerouteNo="0" devices="tripinfo_medium_1026" vType="DEFAULT_VEHTYPE" speedFactor="1.17" vaporized=""/>
    <tripinfo id="heavy_3190" depart="51.00" departLane="9_0" departPos="5.10" departSpeed="0.00" departDelay="0.60" arrival="92.00" arrivalLane="30_0" arrivalPos="38.53" arrivalSpeed="14.38" duration="41.00" routeLength="429.06" waitingTime="0.00" waitingCount="0" stopTime="0.00" timeLoss="12.13" rerouteNo="0" devices="tripinfo_heavy_3190" vType="DEFAULT_VEHTYPE" speedFactor="1.15" vaporized=""/>
    <tripinfo id="heavy_3182" depart="40.00" departLane="210_0" departPos="5.10" departSpeed="0.00" departDelay="0.60" arrival="93.00" arrivalLane="65_0" arrivalPos="98.88" arrivalSpeed="13.53" duration="53.00" routeLength="657.93" waitingTime="0.00" waitingCount="0" stopTime="0.00" timeLoss="5.63" rerouteNo="0" devices="tripinfo_heavy_3182" vType="DEFAULT_VEHTYPE" speedFactor="1.02" vaporized=""/>
    <tripinfo id="heavy_3163" depart="27.00" departLane="8_0" departPos="5.10" departSpeed="0.00" departDelay="0.80" arrival="94.00" arrivalLane="28_0" arrivalPos="60.54" arrivalSpeed="15.10" duration="67.00" routeLength="853.53" waitingTime="0.00" waitingCount="0" stopTime="0.00" timeLoss="9.91" rerouteNo="0" devices="tripinfo_heavy_3163" vType="DEFAULT_VEHTYPE" speedFactor="1.10" vaporized=""/>
    <tripinfo id="heavy_3168" depart="33.00" departLane="8_0" departPos="5.10" departSpeed="0.00" departDelay="3.20" arrival="94.00" arrivalLane="41_0" arrivalPos="37.24" arrivalSpeed="12.97" duration="61.00" routeLength="654.36" waitingTime="0.00" waitingCount="0" stopTime="0.00" timeLoss="12.57" rerouteNo="0" devices="tripinfo_heavy_3168" vType="DEFAULT_VEHTYPE" speedFactor="1.00" vaporized=""/>
    <tripinfo id="heavy_3164" depart="27.00" departLane="125_0" departPos="5.10" departSpeed="0.00" departDelay="0.00" arrival="96.00" arrivalLane="114_0" arrivalPos="693.70" arrivalSpeed="13.32" duration="69.00" routeLength="725.22" waitingTime="7.00" waitingCount="1" stopTime="0.00" timeLoss="17.42" rerouteNo="0" devices="tripinfo_heavy_3164" vType="DEFAULT_VEHTYPE" speedFactor="1.03" vaporized=""/>
    <tripinfo id="heavy_3205" depart="69.00" departLane="224[0]_0" departPos="5.10" departSpeed="0.00" departDelay="0.60" arrival="99.00" arrivalLane="222_0" arrivalPos="20.25" arrivalSpeed="13.51" duration="30.00" routeLength="357.36" waitingTime="0.00" waitingCount="0" stopTime="0.00" timeLoss="4.10" rerouteNo="0" devices="tripinfo_heavy_3205" vType="DEFAULT_VEHTYPE" speedFactor="1.01" vaporized=""/>
    <tripinfo id="medium_1040" depart="51.00" departLane="89[1][1]_0" departPos="5.10" departSpeed="0.00" departDelay="0.50" arrival="104.00" arrivalLane="134b_0" arrivalPos="157.17" arrivalSpeed="12.69" duration="53.00" routeLength="640.40" waitingTime="0.00" waitingCount="0" stopTime="0.00" timeLoss="5.13" rerouteNo="0" devices="tripinfo_medium_1040" vType="DEFAULT_VEHTYPE" speedFactor="0.98" vaporized=""/>
    <tripinfo id="heavy_3197" depart="57.00" departLane="220b_0" departPos="5.10" departSpeed="0.00" departDelay="0.40" arrival="109.00" arrivalLane="49_0" arrivalPos="152.38" arrivalSpeed="13.32" duration="52.00" routeLength="549.59" waitingTime="0.00" waitingCount="0" stopTime="0.00" timeLoss="11.64" rerouteNo="0" devices="tripinfo_heavy_3197" vType="DEFAULT_VEHTYPE" speedFactor="1.01" vaporized=""/>
    <tripinfo id="heavy_3181" depart="40.00" departLane="131_0" departPos="5.10" departSpeed="0.00" departDelay="0.80" arrival="114.00" arrivalLane="134b_0" arrivalPos="157.17" arrivalSpeed="8.32" duration="74.00" routeLength="882.52" waitingTime="0.00" waitingCount="0" stopTime="0.00" timeLoss="10.66" rerouteNo="0" devices="tripinfo_heavy_3181" vType="DEFAULT_VEHTYPE" speedFactor="1.02" vaporized=""/>
    <tripinfo id="heavy_3208" depart="71.00" departLane="25_0" departPos="5.10" departSpeed="0.00" departDelay="0.20" arrival="114.00" arrivalLane="80_0" arrivalPos="125.15" arrivalSpeed="12.55" duration="43.00" routeLength="473.11" waitingTime="0.00" waitingCount="0" stopTime="0.00" timeLoss="7.10" rerouteNo="0" devices="tripinfo_heavy_3208" vType="DEFAULT_VEHTYPE" speedFactor="0.99" vaporized=""/>
    <tripinfo id="light_12" depart="43.00" departLane="210_0" departPos="5.10" departSpeed="0.00" departDelay="2.00" arrival="118.00" arrivalLane="197_0" arrivalPos="204.11" arrivalSpeed="13.04" duration="75.00" routeLength="871.93" waitingTime="0.00" waitingCount="0" stopTime="0.00" timeLoss="8.28" rerouteNo="0" devices="tripinfo_light_12" vType="DEFAULT_VEHTYPE" speedFactor="0.97" vaporized=""/>
    <tripinfo id="heavy_3154" depart="12.00" departLane="42_0" departPos="5.10" departSpeed="0.00" departDelay="0.40" arrival="124.00" arrivalLane="113_0" arrivalPos="80.38" arrivalSpeed="13.23" duration="112.00" routeLength="1223.30" waitingTime="7.00" waitingCount="1" stopTime="0.00" timeLoss="22.60" rerouteNo="0" devices="tripinfo_heavy_3154" vType="DEFAULT_VEHTYPE" speedFactor="1.01" vaporized=""/>
    <tripinfo id="medium_1036" depart="41.00" departLane="51_0" departPos="5.10" departSpeed="0.00" departDelay="0.00" arrival="127.00" arrivalLane="206_0" arrivalPos="95.43" arrivalSpeed="12.59" duration="86.00" routeLength="823.63" waitingTime="3.00" waitingCount="1" stopTime="0.00" timeLoss="19.04" rerouteNo="0" devices="tripinfo_medium_1036" vType="DEFAULT_VEHTYPE" speedFactor="0.94" vaporized=""/>
    <tripinfo id="heavy_3218" depart="81.00" departLane="137_0" departPos="5.10" departSpeed="0.00" departDelay="0.40" arrival="131.00" arrivalLane="136_0" arrivalPos="187.20" arrivalSpeed="13.41" duration="50.00" routeLength="613.14" waitingTime="0.00" waitingCount="0" stopTime="0.00" timeLoss="6.63" rerouteNo="0" devices="tripinfo_heavy_3218" vType="DEFAULT_VEHTYPE" speedFactor="1.04" vaporized=""/>
    <tripinfo id="heavy_3184" depart="44.00" departLane="220b_0" departPos="5.10" departSpeed="0.00" departDelay="0.60" arrival="133.00" arrivalLane="26_0" arrivalPos="336.25" arrivalSpeed="12.96" duration="89.00" routeLength="962.40" waitingTime="0.00" waitingCount="0" stopTime="0.00" timeLoss="12.90" rerouteNo="0" devices="tripinfo_heavy_3184" vType="DEFAULT_VEHTYPE" speedFactor="0.96" vaporized=""/>
    <tripinfo id="medium_1032" depart="37.00" departLane="135_0" departPos="5.10" departSpeed="0.00" departDelay="0.00" arrival="134.00" arrivalLane="86_0" arrivalPos="322.19" arrivalSpeed="13.41" duration="97.00" routeLength="865.73" waitingTime="19.00" waitingCount="1" stopTime="0.00" timeLoss="34.59" rerouteNo="0" devices="tripinfo_medium_1032" vType="DEFAULT_VEHTYPE" speedFactor="1.02" vaporized=""/>
    <tripinfo id="heavy_3214" depart="78.00" departLane="89[1][1]_0" departPos="5.10" departSpeed="0.00" departDelay="0.20" arrival="134.00" arrivalLane="134b_0" arrivalPos="157.17" arrivalSpeed="13.32" duration="56.00" routeLength="640.40" waitingTime="1.00" waitingCount="1" stopTime="0.00" timeLoss="10.50" rerouteNo="0" devices="tripinfo_heavy_3214" vType="DEFAULT_VEHTYPE" speedFactor="1.03" vaporized=""/>
    <tripinfo id="light_6" depart="24.00" departLane="137_0" departPos="5.10" departSpeed="0.00" departDelay="0.00" arrival="139.00" arrivalLane="127_0" arrivalPos="15.68" arrivalSpeed="13.38" duration="115.00" routeLength="1065.47" waitingTime="15.00" waitingCount="2" stopTime="0.00" timeLoss="33.99" rerouteNo="0" devices="tripinfo_light_6" vType="DEFAULT_VEHTYPE" speedFactor="0.97" vaporized=""/>
    <tripinfo id="heavy_3203" depart="69.00" departLane="45_0" departPos="5.10" departSpeed="0.00" departDelay="2.60" arrival="139.00" arrivalLane="49_0" arrivalPos="152.38" arrivalSpeed="12.50" duration="70.00" routeLength="594.42" waitingTime="9.00" waitingCount="1" stopTime="0.00" timeLoss="21.74" rerouteNo="0" devices="tripinfo_heavy_3203" vType="DEFAULT_VEHTYPE" speedFactor="0.93" vaporized=""/>
    <tripinfo id="heavy_3167" depart="29.00" departLane="20001+87[1][0]_1" departPos="5.10" departSpeed="0.00" departDelay="0.00" arrival="150.00" arrivalLane="4c_0" arrivalPos="159.25" arrivalSpeed="14.79" duration="121.00" routeLength="956.49" waitingTime="40.00" waitingCount="1" stopTime="0.00" timeLoss="56.14" rerouteNo="0" devices="tripinfo_heavy_3167" vType="DEFAULT_VEHTYPE" speedFactor="1.09" vaporized=""/>
    <tripinfo id="heavy_3234" depart="106.00" departLane="12_0" departPos="5.10" departSpeed="0.00" departDelay="0.80" arrival="153.00" arrivalLane="26_0" arrivalPos="336.25" arrivalSpeed="14.54" duration="47.00" routeLength="563.18" waitingTime="0.00" waitingCount="0" stopTime="0.00" timeLoss="8.12" rerouteNo="0" devices="tripinfo_heavy_3234" vType="DEFAULT_VEHTYPE" speedFactor="1.05" vaporized=""/>
    <tripinfo id="medium_1031" depart="33.00" departLane="219_0" departPos="5.10" departSpeed="0.00" departDelay="0.00" arrival="154.00" arrivalLane="60_0" arrivalPos="209.90" arrivalSpeed="14.97" duration="121.00" routeLength="1465.13" waitingTime="2.00" waitingCount="1" stopTime="0.00" timeLoss="27.91" rerouteNo="0" devices="tripinfo_medium_1031" vType="DEFAULT_VEHTYPE" speedFactor="1.17" vaporized=""/>
    <tripinfo id="heavy_3186" depart="47.00" departLane="131_0" departPos="5.10" departSpeed="0.00" departDelay="0.20" arrival="154.00" arrivalLane="201c_0" arrivalPos="8.16" arrivalSpeed="10.30" duration="107.00" routeLength="948.61" waitingTime="13.00" waitingCount="2" stopTime="0.00" timeLoss="36.85" rerouteNo="0" devices="tripinfo_heavy_3186" vType="DEFAULT_VEHTYPE" speedFactor="1.01" vaporized=""/>
    <tripinfo id="heavy_3153" depart="11.00" departLane="133_0" departPos="5.10" departSpeed="0.00" departDelay="0.00" arrival="155.00" arrivalLane="54_0" arrivalPos="301.28" arrivalSpeed="15.97" duration="144.00" routeLength="984.30" waitingTime="56.00" waitingCount="3" stopTime="0.00" timeLoss="81.30" rerouteNo="0" devices="tripinfo_heavy_3153" vType="DEFAULT_VEHTYPE" speedFactor="1.16" vaporized=""/>
    <tripinfo id="light_11" depart="39.00" departLane="85_0" departPos="5.10" departSpeed="0.00" departDelay="0.00" arrival="159.00" arrivalLane="219_0" arrivalPos="87.23" arrivalSpeed="12.48" duration="120.00" routeLength="980.74" waitingTime="19.00" waitingCount="2" stopTime="0.00" timeLoss="37.57" rerouteNo="0" devices="tripinfo_light_11" vType="DEFAULT_VEHTYPE" speedFactor="0.91" vaporized=""/>
    <tripinfo id="medium_1045" depart="63.00" departLane="220b_0" departPos="5.10" departSpeed="0.00" departDelay="5.50" arrival="160.00" arrivalLane="26_0" arrivalPos="336.25" arrivalSpeed="14.67" duration="97.00" routeLength="962.40" waitingTime="3.00" waitingCount="1" stopTime="0.00" timeLoss="28.02" rerouteNo="0" devices="tripinfo_medium_1045" vType="DEFAULT_VEHTYPE" speedFactor="1.06" vaporized=""/>
    <tripinfo id="heavy_3146" depart="3.00" departLane="56a_0" departPos="5.10" departSpeed="0.00" departDelay="0.60" arrival="161.00" arrivalLane="134_0" arrivalPos="11.31" arrivalSpeed="12.27" duration="158.00" routeLength="1214.71" waitingTime="34.00" waitingCount="3" stopTime="0.00" timeLoss="58.11" rerouteNo="0" devices="tripinfo_heavy_3146" vType="DEFAULT_VEHTYPE" speedFactor="0.89" vaporized=""/>
    <tripinfo id="medium_1021" depart="6.00" departLane="189[1][0]+20000_1" departPos="5.10" departSpeed="0.00" departDelay="0.00" arrival="167.00" arrivalLane="60_0" arrivalPos="209.90" arrivalSpeed="14.32" duration="161.00" routeLength="1413.90" waitingTime="43.00" waitingCount="1" stopTime="0.00" timeLoss="69.11" rerouteNo="0" devices="tripinfo_medium_1021" vType="DEFAULT_VEHTYPE" speedFactor="1.12" vaporized=""/>
    <tripinfo id="heavy_3179" depart="39.00" departLane="191_0" departPos="5.10" departSpeed="0.00" departDelay="0.60" arrival="168.00" arrivalLane="72[0]_0" arrivalPos="170.33" arrivalSpeed="11.83" duration="129.00" routeLength="1326.59" waitingTime="1.00" waitingCount="1" stopTime="0.00" timeLoss="24.57" rerouteNo="0" devices="tripinfo_heavy_3179" vType="DEFAULT_VEHTYPE" speedFactor="0.94" vaporized=""/>
    <tripinfo id="heavy_3244" depart="118.00" departLane="8_0" departPos="5.10" departSpeed="0.00" departDelay="0.80" arrival="168.00" arrivalLane="30_0" arrivalPos="38.53" arrivalSpeed="13.07" duration="50.00" routeLength="527.61" waitingTime="0.00" waitingCount="0" stopTime="0.00" timeLoss="10.52" rerouteNo="0" devices="tripinfo_heavy_3244" vType="DEFAULT_VEHTYPE" speedFactor="1.03" vaporized=""/>
    <tripinfo id="medium_1060" depart="101.00" departLane="12_0" departPos="5.10" departSpeed="0.00" departDelay="0.00" arrival="172.00" arrivalLane="20_0" arrivalPos="69.17" arrivalSpeed="15.51" duration="71.00" routeLength="690.08" waitingTime="4.00" waitingCount="1" stopTime="0.00" timeLoss="26.34" rerouteNo="0" devices="tripinfo_medium_1060" vType="DEFAULT_VEHTYPE" speedFactor="1.18" vaporized=""/>
    <tripinfo id="medium_1076" depart="144.00" departLane="8_0" departPos="5.10" departSpeed="0.00" departDelay="0.00" arrival="172.00" arrivalLane="24_0" arrivalPos="137.89" arrivalSpeed="13.47" duration="28.00" routeLength="333.04" waitingTime="0.00" waitingCount="0" stopTime="0.00" timeLoss="3.83" rerouteNo="0" devices="tripinfo_medium_1076" vType="DEFAULT_VEHTYPE" speedFactor="0.99" vaporized=""/>
    <tripinfo id="light_7" depart="26.00" departLane="159_0" departPos="5.10" departSpeed="0.00" departDelay="0.00" arrival="174.00" arrivalLane="134b_0" arrivalPos="157.17" arrivalSpeed="16.29" duration="148.00" routeLength="1592.03" waitingTime="23.00" waitingCount="2" stopTime="0.00" timeLoss="49.80" rerouteNo="0" devices="tripinfo_light_7" vType="DEFAULT_VEHTYPE" speedFactor="1.18" vaporized=""/>
    <tripinfo id="light_0" depart="1.00" departLane="161_0" departPos="5.10" departSpeed="0.00" departDelay="0.00" arrival="179.00" arrivalLane="30_0" arrivalPos="38.53" arrivalSpeed="13.62" duration="178.00" routeLength="2042.10" waitingTime="0.00" waitingCount="0" stopTime="0.00" timeLoss="27.12" rerouteNo="0" devices="tripinfo_light_0" vType="DEFAULT_VEHTYPE" speedFactor="1.01" vaporized=""/>
    <tripinfo id="heavy_3213" depart="77.00" departLane="8_0" departPos="5.10" departSpeed="0.00" departDelay="0.60" arrival="183.00" arrivalLane="86_0" arrivalPos="322.19" arrivalSpeed="13.10" duration="106.00" routeLength="1215.08" waitingTime="1.00" waitingCount="1" stopTime="0.00" timeLoss="18.25" rerouteNo="0" devices="tripinfo_heavy_3213" vType="DEFAULT_VEHTYPE" speedFactor="1.02" vaporized=""/>
    <tripinfo id="light_2" depart="8.00" departLane="109[1][1]_0" departPos="5.10" departSpeed="0.00" departDelay="0.00" arrival="184.00" arrivalLane="19_0" arrivalPos="69.17" arrivalSpeed="6.23" duration="176.00" routeLength="1586.59" waitingTime="11.00" waitingCount="2" stopTime="0.00" timeLoss="41.15" rerouteNo="0" devices="tripinfo_light_2" vType="DEFAULT_VEHTYPE" speedFactor="0.88" vaporized=""/>
    <tripinfo id="light_1" depart="4.00" departLane="135_0" departPos="5.10" departSpeed="0.00" departDelay="2.00" arrival="185.00" arrivalLane="209_0" arrivalPos="396.59" arrivalSpeed="14.01" duration="181.00" routeLength="1756.46" waitingTime="38.00" waitingCount="1" stopTime="0.00" timeLoss="58.74" rerouteNo="0" devices="tripinfo_light_1" vType="DEFAULT_VEHTYPE" speedFactor="1.05" vaporized=""/>
    <tripinfo id="medium_1063" depart="106.00" departLane="21b_0" departPos="5.10" departSpeed="0.00" departDelay="0.50" arrival="185.00" arrivalLane="28_0" arrivalPos="60.54" arrivalSpeed="13.67" duration="79.00" routeLength="860.64" waitingTime="0.00" waitingCount="0" stopTime="0.00" timeLoss="13.97" rerouteNo="0" devices="tripinfo_medium_1063" vType="DEFAULT_VEHTYPE" speedFactor="1.00" vaporized=""/>
    <tripinfo id="medium_1019" depart="3.00" departLane="25_0" departPos="5.10" departSpeed="0.00" departDelay="0.50" arrival="186.00" arrivalLane="153_0" arrivalPos="396.11" arrivalSpeed="8.29" duration="183.00" routeLength="1562.81" waitingTime="15.00" waitingCount="1" stopTime="0.00" timeLoss="44.35" rerouteNo="0" devices="tripinfo_medium_1019" vType="DEFAULT_VEHTYPE" speedFactor="0.86" vaporized=""/>
    <tripinfo id="heavy_3204" depart="69.00" departLane="203[1]b_0" departPos="0.20" departSpeed="0.00" departDelay="0.60" arrival="186.00" arrivalLane="200_0" arrivalPos="82.99" arrivalSpeed="15.23" duration="117.00" routeLength="714.49" waitingTime="53.00" waitingCount="2" stopTime="0.00" timeLoss="68.33" rerouteNo="0" devices="tripinfo_heavy_3204" vType="DEFAULT_VEHTYPE" speedFactor="1.10" vaporized=""/>
    <tripinfo id="heavy_3264" depart="133.00" departLane="44_0" departPos="5.10" departSpeed="0.00" departDelay="0.80" arrival="189.00" arrivalLane="219_0" arrivalPos="87.23" arrivalSpeed="11.44" duration="56.00" routeLength="501.01" waitingTime="0.00" waitingCount="0" stopTime="0.00" timeLoss="9.44" rerouteNo="0" devices="tripinfo_heavy_3264" vType="DEFAULT_VEHTYPE" speedFactor="0.83" vaporized=""/>
    <tripinfo id="light_5" depart="22.00" departLane="224[0]_0" departPos="5.10" departSpeed="0.00" departDelay="0.00" arrival="190.00" arrivalLane="60_0" arrivalPos="209.90" arrivalSpeed="12.96" duration="168.00" routeLength="1983.04" waitingTime="2.00" waitingCount="1" stopTime="0.00" timeLoss="22.25" rerouteNo="0" devices="tripinfo_light_5" vType="DEFAULT_VEHTYPE" speedFactor="1.02" vaporized=""/>
    <tripinfo id="heavy_3160" depart="20.00" departLane="219_0" departPos="5.10" departSpeed="0.00" departDelay="0.80" arrival="193.00" arrivalLane="134b_0" arrivalPos="157.17" arrivalSpeed="15.15" duration="173.00" routeLength="1710.23" waitingTime="20.00" waitingCount="4" stopTime="0.00" timeLoss="63.66" rerouteNo="0" devices="tripinfo_heavy_3160" vType="DEFAULT_VEHTYPE" speedFactor="1.15" vaporized=""/>
    <tripinfo id="heavy_3268" depart="134.00" departLane="13_0" departPos="5.10" departSpeed="0.00" departDelay="0.60" arrival="193.00" arrivalLane="189[0]_0" arrivalPos="5.07" arrivalSpeed="12.57" duration="59.00" routeLength="524.28" waitingTime="0.00" waitingCount="0" stopTime="0.00" timeLoss="16.78" rerouteNo="0" devices="tripinfo_heavy_3268" vType="DEFAULT_VEHTYPE" speedFactor="0.91" vaporized=""/>
    <tripinfo id="heavy_3301" depart="163.00" departLane="m2_0" departPos="5.10" departSpeed="0.00" departDelay="0.00" arrival="193.00" arrivalLane="54_0" arrivalPos="301.28" arrivalSpeed="12.85" duration="30.00" routeLength="339.94" waitingTime="0.00" waitingCount="0" stopTime="0.00" timeLoss="4.60" rerouteNo="0" devices="tripinfo_heavy_3301" vType="DEFAULT_VEHTYPE" speedFactor="0.98" vaporized=""/>
    <tripinfo id="heavy_3151" depart="7.00" departLane="181_0" departPos="5.10" departSpeed="0.00" departDelay="0.60" arrival="194.00" arrivalLane="114_0" arrivalPos="693.70" arrivalSpeed="11.82" duration="187.00" routeLength="1750.57" waitingTime="26.00" waitingCount="2" stopTime="0.00" timeLoss="48.88" rerouteNo="0" devices="tripinfo_heavy_3151" vType="DEFAULT_VEHTYPE" speedFactor="0.93" vaporized=""/>
    <tripinfo id="heavy_3237" depart="108.00" departLane="38_0" departPos="5.10" departSpeed="0.00" departDelay="0.40" arrival="197.00" arrivalLane="28_0" arrivalPos="60.54" arrivalSpeed="12.26" duration="89.00" routeLength="906.31" waitingTime="0.00" waitingCount="0" stopTime="0.00" timeLoss="15.58" rerouteNo="0" devices="tripinfo_heavy_3237" vType="DEFAULT_VEHTYPE" speedFactor="0.94" vaporized=""/>
    <tripinfo id="heavy_3241" depart="112.00" departLane="25_0" departPos="5.10" departSpeed="0.00" departDelay="0.60" arrival="197.00" arrivalLane="49_0" arrivalPos="152.38" arrivalSpeed="14.37" duration="85.00" routeLength="1036.77" waitingTime="0.00" waitingCount="0" stopTime="0.00" timeLoss="14.03" rerouteNo="0" devices="tripinfo_heavy_3241" vType="DEFAULT_VEHTYPE" speedFactor="1.09" vaporized=""/>
    <tripinfo id="heavy_3196" depart="57.00" departLane="180_0" departPos="5.10" departSpeed="0.00" departDelay="0.60" arrival="198.00" arrivalLane="211_0" arrivalPos="133.68" arrivalSpeed="14.41" duration="141.00" routeLength="1588.66" waitingTime="3.00" waitingCount="2" stopTime="0.00" timeLoss="32.77" rerouteNo="0" devices="tripinfo_heavy_3196" vType="DEFAULT_VEHTYPE" speedFactor="1.09" vaporized=""/>
    <tripinfo id="medium_1065" depart="109.00" departLane="65_0" departPos="5.10" departSpeed="0.00" departDelay="0.00" arrival="198.00" arrivalLane="134b_0" arrivalPos="157.17" arrivalSpeed="11.15" duration="89.00" routeLength="799.54" waitingTime="7.00" waitingCount="2" stopTime="0.00" timeLoss="23.35" rerouteNo="0" devices="tripinfo_medium_1065" vType="DEFAULT_VEHTYPE" speedFactor="0.89" vaporized=""/>
    <tripinfo id="heavy_3276" depart="145.00" departLane="66_0" departPos="5.10" departSpeed="0.00" departDelay="0.80" arrival="198.00" arrivalLane="209_0" arrivalPos="396.59" arrivalSpeed="13.16" duration="53.00" routeLength="643.10" waitingTime="0.00" waitingCount="0" stopTime="0.00" timeLoss="7.36" rerouteNo="0" devices="tripinfo_heavy_3276" vType="DEFAULT_VEHTYPE" speedFactor="1.04" vaporized=""/>
    <tripinfo id="light_16" depart="60.00" departLane="224[0]_0" departPos="5.10" departSpeed="0.00" departDelay="0.00" arrival="199.00" arrivalLane="109[0]_0" arrivalPos="24.82" arrivalSpeed="12.41" duration="139.00" routeLength="1315.70" waitingTime="13.00" waitingCount="2" stopTime="0.00" timeLoss="37.64" rerouteNo="0" devices="tripinfo_light_16" vType="DEFAULT_VEHTYPE" speedFactor="0.97" vaporized=""/>
    <tripinfo id="medium_1034" depart="43.00" departLane="224[0]_0" departPos="5.10" departSpeed="0.00" departDelay="4.50" arrival="202.00" arrivalLane="4c_0" arrivalPos="159.25" arrivalSpeed="11.99" duration="159.00" routeLength="1453.90" waitingTime="19.00" waitingCount="2" stopTime="0.00" timeLoss="38.41" rerouteNo="0" devices="tripinfo_medium_1034" vType="DEFAULT_VEHTYPE" speedFactor="0.88" vaporized=""/>
    <tripinfo id="heavy_3199" depart="61.00" departLane="19_0" departPos="5.10" departSpeed="0.00" departDelay="3.40" arrival="204.00" arrivalLane="46_0" arrivalPos="66.81" arrivalSpeed="12.31" duration="143.00" routeLength="1344.23" waitingTime="10.00" waitingCount="2" stopTime="0.00" timeLoss="39.97" rerouteNo="0" devices="tripinfo_heavy_3199" vType="DEFAULT_VEHTYPE" speedFactor="0.96" vaporized=""/>
    <tripinfo id="medium_1059" depart="97.00" departLane="89[0]_0" departPos="5.10" departSpeed="0.00" departDelay="3.00" arrival="209.00" arrivalLane="209_0" arrivalPos="396.59" arrivalSpeed="13.78" duration="112.00" routeLength="1081.12" waitingTime="14.00" waitingCount="2" stopTime="0.00" timeLoss="33.55" rerouteNo="0" devices="tripinfo_medium_1059" vType="DEFAULT_VEHTYPE" speedFactor="1.00" vaporized=""/>
    <tripinfo id="heavy_3150" depart="7.00" departLane="78[0]_0" departPos="5.10" departSpeed="0.00" departDelay="0.80" arrival="214.00" arrivalLane="134b_0" arrivalPos="157.17" arrivalSpeed="13.07" duration="207.00" routeLength="1811.89" waitingTime="32.00" waitingCount="3" stopTime="0.00" timeLoss="74.77" rerouteNo="0" devices="tripinfo_heavy_3150" vType="DEFAULT_VEHTYPE" speedFactor="0.99" vaporized=""/>
    <tripinfo id="medium_1022" depart="10.00" departLane="220b_0" departPos="5.10" departSpeed="0.00" departDelay="0.00" arrival="217.00" arrivalLane="134b_0" arrivalPos="157.17" arrivalSpeed="12.06" duration="207.00" routeLength="1731.11" waitingTime="35.00" waitingCount="3" stopTime="0.00" timeLoss="72.92" rerouteNo="0" devices="tripinfo_medium_1022" vType="DEFAULT_VEHTYPE" speedFactor="0.94" vaporized=""/>
    <tripinfo id="heavy_3243" depart="115.00" departLane="8_0" departPos="5.10" departSpeed="0.00" departDelay="0.00" arrival="217.00" arrivalLane="28_0" arrivalPos="60.54" arrivalSpeed="14.75" duration="102.00" routeLength="853.53" waitingTime="27.00" waitingCount="1" stopTime="0.00" timeLoss="44.74" rerouteNo="0" devices="tripinfo_heavy_3243" vType="DEFAULT_VEHTYPE" speedFactor="1.10" vaporized=""/>
    <tripinfo id="light_10" depart="40.00" departLane="224[0]_0" departPos="5.10" departSpeed="0.00" departDelay="2.00" arrival="218.00" arrivalLane="65_0" arrivalPos="98.88" arrivalSpeed="4.41" duration="178.00" routeLength="1663.71" waitingTime="19.00" waitingCount="2" stopTime="0.00" timeLoss="67.64" rerouteNo="0" devices="tripinfo_light_10" vType="DEFAULT_VEHTYPE" speedFactor="1.12" vaporized=""/>
    <tripinfo id="light_31" depart="118.00" departLane="210_0" departPos="5.10" departSpeed="0.00" departDelay="0.00" arrival="221.00" arrivalLane="109[1][0]+20003_1" arrivalPos="26.88" arrivalSpeed="12.51" duration="103.00" routeLength="941.13" waitingTime="12.00" waitingCount="1" stopTime="0.00" timeLoss="28.71" rerouteNo="0" devices="tripinfo_light_31" vType="DEFAULT_VEHTYPE" speedFactor="0.94" vaporized=""/>
    <tripinfo id="heavy_3250" depart="123.00" departLane="220b_0" departPos="5.10" departSpeed="0.00" departDelay="2.60" arrival="221.00" arrivalLane="49_0" arrivalPos="152.38" arrivalSpeed="11.67" duration="98.00" routeLength="549.59" waitingTime="36.00" waitingCount="2" stopTime="0.00" timeLoss="53.45" rerouteNo="0" devices="tripinfo_heavy_3250" vType="DEFAULT_VEHTYPE" speedFactor="0.90" vaporized=""/>
    <tripinfo id="heavy_3143" depart="1.00" departLane="135_0" departPos="5.10" departSpeed="0.00" departDelay="0.60" arrival="225.00" arrivalLane="204[1][1]_0" arrivalPos="436.51" arrivalSpeed="11.87" duration="224.00" routeLength="1691.81" waitingTime="62.00" waitingCount="3" stopTime="0.00" timeLoss="92.04" rerouteNo="0" devices="tripinfo_heavy_3143" vType="DEFAULT_VEHTYPE" speedFactor="0.94" vaporized=""/>
    <tripinfo id="medium_1055" depart="86.00" departLane="69_0" departPos="5.10" departSpeed="0.00" departDelay="2.00" arrival="225.00" arrivalLane="200_0" arrivalPos="82.99" arrivalSpeed="14.79" duration="139.00" routeLength="1151.19" waitingTime="20.00" waitingCount="5" stopTime="0.00" timeLoss="61.58" rerouteNo="0" devices="tripinfo_medium_1055" vType="DEFAULT_VEHTYPE" speedFactor="1.11" vaporized=""/>