<?xml version="1.0" encoding="UTF-8"?>

<!-- generated on 2025-04-22 20:09:14 by Eclipse SUMO GUI Version 1.22.0
<sumoConfiguration xmlns:xsi="http://www.w3.org/2001/XMLSchema-instance" xsi:noNamespaceSchemaLocation="http://sumo.dlr.de/xsd/sumoConfiguration.xsd">

    <input>
        <net-file value="c:\Users\JunKit\Desktop\Designing-Intelligent-Agents\src\acosta 3.0\acosta_buslanes.net.xml"/>
        <route-files value="c:\Users\JunKit\Desktop\Designing-Intelligent-Agents\src\acosta 3.0\acosta.rou.xml,c:\Users\JunKit\Desktop\Designing-Intelligent-Agents\src\acosta 3.0\acosta_busses.rou.xml"/>
        <additional-files value="c:\Users\JunKit\Desktop\Designing-Intelligent-Agents\src\acosta 3.0\acosta_vtypes.add.xml,c:\Users\JunKit\Desktop\Designing-Intelligent-Agents\src\acosta 3.0\acosta_detectors.add.xml,c:\Users\JunKit\Desktop\Designing-Intelligent-Agents\src\acosta 3.0\acosta_bus_stops.add.xml,c:\Users\JunKit\Desktop\Designing-Intelligent-Agents\src\acosta 3.0\acosta_tls.add.xml"/>
    </input>

    <output>
        <tripinfo-output value="c:\Users\JunKit\Desktop\Designing-Intelligent-Agents\src\acosta 3.0\tripinfos.xml"/>
    </output>

    <processing>
        <time-to-teleport value="300"/>
        <waiting-time-memory value="3600"/>
        <max-depart-delay value="100000"/>
    </processing>

    <report>
        <no-warnings value="true"/>
        <log value="../output/sumo.log"/>
        <message-log value="../output/sumo_messages.log"/>
        <error-log value="../output/sumo_errors.log"/>
        <no-step-log value="true"/>
    </report>

    <traci_server>
        <remote-port value="59818"/>
    </traci_server>

    <gui_only>
        <gui-settings-file value="c:\Users\JunKit\Desktop\Designing-Intelligent-Agents\src\acosta 3.0\settings.gui.xml"/>
    </gui_only>

</sumoConfiguration>
-->

<tripinfos xmlns:xsi="http://www.w3.org/2001/XMLSchema-instance" xsi:noNamespaceSchemaLocation="http://sumo.dlr.de/xsd/tripinfo_file.xsd">
    <tripinfo id="Audinot_7_0" depart="0.00" departLane="131_0" departPos="0.00" departSpeed="0.00" departDelay="0.00" arrival="76.00" arrivalLane="209_0" arrivalPos="395.59" arrivalSpeed="13.48" duration="76.00" routeLength="873.23" waitingTime="0.00" waitingCount="0" stopTime="0.00" timeLoss="10.25" rerouteNo="0" devices="tripinfo_Audinot_7_0" vType="passenger4" speedFactor="0.98" vaporized=""/>
    <tripinfo id="Pepoli_8_16" depart="27.00" departLane="210_0" departPos="0.00" departSpeed="0.00" departDelay="0.00" arrival="82.00" arrivalLane="134b_0" arrivalPos="156.17" arrivalSpeed="14.75" duration="55.00" routeLength="692.71" waitingTime="0.00" waitingCount="0" stopTime="0.00" timeLoss="8.19" rerouteNo="0" devices="tripinfo_Pepoli_8_16" vType="passenger1" speedFactor="1.09" vaporized=""/>
    <tripinfo id="Pepoli_8_21" depart="36.00" departLane="210_0" departPos="0.00" departSpeed="0.00" departDelay="0.00" arrival="91.00" arrivalLane="134b_0" arrivalPos="156.17" arrivalSpeed="16.23" duration="55.00" routeLength="692.71" waitingTime="0.00" waitingCount="0" stopTime="0.00" timeLoss="14.54" rerouteNo="0" devices="tripinfo_Pepoli_8_21" vType="passenger1" speedFactor="1.25" vaporized=""/>
    <tripinfo id="Pepoli_8_23" depart="39.00" departLane="210_0" departPos="0.00" departSpeed="0.00" departDelay="0.00" arrival="95.00" arrivalLane="134b_0" arrivalPos="156.17" arrivalSpeed="14.60" duration="56.00" routeLength="692.71" waitingTime="0.00" waitingCount="0" stopTime="0.00" timeLoss="10.54" rerouteNo="0" devices="tripinfo_Pepoli_8_23" vType="passenger1" speedFactor="1.13" vaporized=""/>
    <tripinfo id="Pepoli_8_25" depart="42.00" departLane="210_0" departPos="0.00" departSpeed="0.00" departDelay="0.00" arrival="102.00" arrivalLane="134b_0" arrivalPos="156.17" arrivalSpeed="13.77" duration="60.00" routeLength="692.71" waitingTime="0.00" waitingCount="0" stopTime="0.00" timeLoss="10.45" rerouteNo="0" devices="tripinfo_Pepoli_8_25" vType="passenger2a" speedFactor="1.03" vaporized=""/>
    <tripinfo id="Pepoli_8_28" depart="48.00" departLane="210_0" departPos="0.00" departSpeed="0.00" departDelay="0.00" arrival="106.00" arrivalLane="134b_0" arrivalPos="156.17" arrivalSpeed="14.85" duration="58.00" routeLength="692.71" waitingTime="0.00" waitingCount="0" stopTime="0.00" timeLoss="12.96" rerouteNo="0" devices="tripinfo_Pepoli_8_28" vType="passenger3" speedFactor="1.13" vaporized=""/>
    <tripinfo id="Costa_1_2" depart="9.00" departLane="78[0]_0" departPos="0.00" departSpeed="0.00" departDelay="4.00" arrival="107.00" arrivalLane="86_0" arrivalPos="321.19" arrivalSpeed="13.99" duration="98.00" routeLength="1191.74" waitingTime="0.00" waitingCount="0" stopTime="0.00" timeLoss="11.08" rerouteNo="0" devices="tripinfo_Costa_1_2" vType="passenger2b" speedFactor="1.02" vaporized=""/>
    <tripinfo id="Costa_12_0" depart="0.00" departLane="78[0]_0" departPos="0.00" departSpeed="0.00" departDelay="0.00" arrival="112.00" arrivalLane="136_0" arrivalPos="186.20" arrivalSpeed="13.94" duration="112.00" routeLength="1416.45" waitingTime="0.00" waitingCount="0" stopTime="0.00" timeLoss="15.48" rerouteNo="0" devices="tripinfo_Costa_12_0" vType="passenger1" speedFactor="1.08" vaporized=""/>
    <tripinfo id="Costa_1_4" depart="15.00" departLane="78[0]_0" departPos="0.00" departSpeed="0.00" departDelay="5.00" arrival="116.00" arrivalLane="86_0" arrivalPos="321.19" arrivalSpeed="13.04" duration="101.00" routeLength="1191.74" waitingTime="0.00" waitingCount="0" stopTime="0.00" timeLoss="11.97" rerouteNo="0" devices="tripinfo_Costa_1_4" vType="passenger2a" speedFactor="0.99" vaporized=""/>
    <tripinfo id="Costa_12_1" depart="7.00" departLane="78[0]_0" departPos="0.00" departSpeed="0.00" departDelay="5.00" arrival="119.00" arrivalLane="136_0" arrivalPos="186.20" arrivalSpeed="14.95" duration="112.00" routeLength="1416.45" waitingTime="0.00" waitingCount="0" stopTime="0.00" timeLoss="16.68" rerouteNo="0" devices="tripinfo_Costa_12_1" vType="passenger2b" speedFactor="1.09" vaporized=""/>
    <tripinfo id="Costa_3_21" depart="55.00" departLane="78[0]_0" departPos="0.00" departSpeed="0.00" departDelay="1.00" arrival="128.00" arrivalLane="14_0" arrivalPos="77.26" arrivalSpeed="15.34" duration="73.00" routeLength="850.23" waitingTime="0.00" waitingCount="0" stopTime="0.00" timeLoss="17.09" rerouteNo="0" devices="tripinfo_Costa_3_21" vType="passenger1" speedFactor="1.13" vaporized=""/>
    <tripinfo id="Costa_12_3" depart="12.00" departLane="78[0]_0" departPos="0.00" departSpeed="0.00" departDelay="5.00" arrival="131.00" arrivalLane="136_0" arrivalPos="186.20" arrivalSpeed="12.87" duration="119.00" routeLength="1413.62" waitingTime="0.00" waitingCount="0" stopTime="0.00" timeLoss="14.58" rerouteNo="0" devices="tripinfo_Costa_12_3" vType="passenger1" speedFactor="1.01" vaporized=""/>
    <tripinfo id="XXI_Aprile_2_12" depart="42.00" departLane="13_0" departPos="0.00" departSpeed="0.00" departDelay="0.00" arrival="132.00" arrivalLane="77[1][1]_0" arrivalPos="463.98" arrivalSpeed="15.22" duration="90.00" routeLength="976.81" waitingTime="2.00" waitingCount="1" stopTime="0.00" timeLoss="24.95" rerouteNo="0" devices="tripinfo_XXI_Aprile_2_12" vType="passenger4" speedFactor="1.10" vaporized=""/>
    <tripinfo id="Pepoli_11_5" depart="8.00" departLane="210_1" departPos="0.00" departSpeed="0.00" departDelay="0.00" arrival="138.00" arrivalLane="114_0" arrivalPos="692.70" arrivalSpeed="14.69" duration="130.00" routeLength="1738.36" waitingTime="0.00" waitingCount="0" stopTime="0.00" timeLoss="18.74" rerouteNo="0" devices="tripinfo_Pepoli_11_5" vType="passenger1" speedFactor="1.13" vaporized=""/>
    <tripinfo id="Costa_1_15" depart="39.00" departLane="78[0]_0" departPos="0.00" departSpeed="0.00" departDelay="0.00" arrival="139.00" arrivalLane="86_1" arrivalPos="321.19" arrivalSpeed="16.12" duration="100.00" routeLength="1191.74" waitingTime="5.00" waitingCount="3" stopTime="0.00" timeLoss="25.11" rerouteNo="0" devices="tripinfo_Costa_1_15" vType="passenger4" speedFactor="1.18" vaporized=""/>
    <tripinfo id="XXI_Aprile_12_6" depart="21.00" departLane="13_0" departPos="0.00" departSpeed="0.00" departDelay="0.00" arrival="141.00" arrivalLane="136_0" arrivalPos="186.20" arrivalSpeed="12.99" duration="120.00" routeLength="1343.89" waitingTime="0.00" waitingCount="0" stopTime="0.00" timeLoss="14.49" rerouteNo="0" devices="tripinfo_XXI_Aprile_12_6" vType="passenger1" speedFactor="0.94" vaporized=""/>
    <tripinfo id="Costa_12_7" depart="19.00" departLane="78[0]_0" departPos="0.00" departSpeed="0.00" departDelay="1.00" arrival="142.00" arrivalLane="136_0" arrivalPos="186.20" arrivalSpeed="13.84" duration="123.00" routeLength="1416.45" waitingTime="0.00" waitingCount="0" stopTime="0.00" timeLoss="27.55" rerouteNo="0" devices="tripinfo_Costa_12_7" vType="passenger5" speedFactor="1.10" vaporized=""/>
    <tripinfo id="Pepoli_8_44" depart="75.00" departLane="210_0" departPos="0.00" departSpeed="0.00" departDelay="0.00" arrival="143.00" arrivalLane="134b_0" arrivalPos="156.17" arrivalSpeed="11.34" duration="68.00" routeLength="692.71" waitingTime="0.00" waitingCount="0" stopTime="0.00" timeLoss="7.58" rerouteNo="0" devices="tripinfo_Pepoli_8_44" vType="passenger3" speedFactor="0.85" vaporized=""/>
    <tripinfo id="Pepoli_8_48" depart="82.00" departLane="210_0" departPos="0.00" departSpeed="0.00" departDelay="0.00" arrival="144.00" arrivalLane="134b_0" arrivalPos="156.17" arrivalSpeed="13.66" duration="62.00" routeLength="692.71" waitingTime="0.00" waitingCount="0" stopTime="0.00" timeLoss="16.26" rerouteNo="0" devices="tripinfo_Pepoli_8_48" vType="passenger2a" speedFactor="1.11" vaporized=""/>
    <tripinfo id="Costa_1_19" depart="50.00" departLane="78[0]_0" departPos="0.00" departSpeed="0.00" departDelay="1.00" arrival="146.00" arrivalLane="86_2" arrivalPos="321.19" arrivalSpeed="15.61" duration="96.00" routeLength="1185.38" waitingTime="1.00" waitingCount="1" stopTime="0.00" timeLoss="23.69" rerouteNo="0" devices="tripinfo_Costa_1_19" vType="passenger2a" speedFactor="1.21" vaporized=""/>
    <tripinfo id="Pepoli_11_8" depart="17.00" departLane="210_1" departPos="0.00" departSpeed="0.00" departDelay="4.00" arrival="147.00" arrivalLane="114_0" arrivalPos="692.70" arrivalSpeed="13.47" duration="130.00" routeLength="1735.40" waitingTime="0.00" waitingCount="0" stopTime="0.00" timeLoss="11.73" rerouteNo="0" devices="tripinfo_Pepoli_11_8" vType="passenger2a" speedFactor="1.07" vaporized=""/>
    <tripinfo id="Pepoli_11_15" depart="25.00" departLane="210_1" departPos="0.00" departSpeed="0.00" departDelay="0.00" arrival="150.00" arrivalLane="114_1" arrivalPos="692.70" arrivalSpeed="15.46" duration="125.00" routeLength="1735.40" waitingTime="0.00" waitingCount="0" stopTime="0.00" timeLoss="12.28" rerouteNo="0" devices="tripinfo_Pepoli_11_15" vType="passenger1" speedFactor="1.12" vaporized=""/>
    <tripinfo id="Pepoli_8_51" depart="88.00" departLane="210_0" departPos="0.00" departSpeed="0.00" departDelay="1.00" arrival="150.00" arrivalLane="134b_0" arrivalPos="156.17" arrivalSpeed="12.59" duration="62.00" routeLength="692.71" waitingTime="0.00" waitingCount="0" stopTime="0.00" timeLoss="7.17" rerouteNo="0" devices="tripinfo_Pepoli_8_51" vType="passenger1" speedFactor="0.94" vaporized=""/>
    <tripinfo id="Pepoli_11_6" depart="11.00" departLane="210_1" departPos="0.00" departSpeed="0.00" departDelay="1.00" arrival="152.00" arrivalLane="114_0" arrivalPos="692.70" arrivalSpeed="12.32" duration="141.00" routeLength="1738.36" waitingTime="0.00" waitingCount="0" stopTime="0.00" timeLoss="10.74" rerouteNo="0" devices="tripinfo_Pepoli_11_6" vType="passenger1" speedFactor="0.97" vaporized=""/>
    <tripinfo id="Costa_1_17" depart="44.00" departLane="78[0]_0" departPos="0.00" departSpeed="0.00" departDelay="0.00" arrival="152.00" arrivalLane="86_1" arrivalPos="321.19" arrivalSpeed="13.13" duration="108.00" routeLength="1188.91" waitingTime="3.00" waitingCount="1" stopTime="0.00" timeLoss="23.67" rerouteNo="0" devices="tripinfo_Costa_1_17" vType="passenger1" speedFactor="1.03" vaporized=""/>
    <tripinfo id="Costa_12_9" depart="26.00" departLane="78[0]_0" departPos="0.00" departSpeed="0.00" departDelay="3.00" arrival="155.00" arrivalLane="136_0" arrivalPos="186.20" arrivalSpeed="12.55" duration="129.00" routeLength="1416.45" waitingTime="0.00" waitingCount="0" stopTime="0.00" timeLoss="14.59" rerouteNo="0" devices="tripinfo_Costa_12_9" vType="passenger3" speedFactor="0.91" vaporized=""/>
    <tripinfo id="XXI_Aprile_1_18" depart="64.00" departLane="13_0" departPos="0.00" departSpeed="0.00" departDelay="0.00" arrival="156.00" arrivalLane="86_2" arrivalPos="321.19" arrivalSpeed="15.47" duration="92.00" routeLength="1112.82" waitingTime="0.00" waitingCount="0" stopTime="0.00" timeLoss="21.16" rerouteNo="0" devices="tripinfo_XXI_Aprile_1_18" vType="passenger2a" speedFactor="1.15" vaporized=""/>
    <tripinfo id="Costa_12_11" depart="29.00" departLane="78[0]_0" departPos="0.00" departSpeed="0.00" departDelay="1.00" arrival="157.00" arrivalLane="136_0" arrivalPos="186.20" arrivalSpeed="14.23" duration="128.00" routeLength="1413.62" waitingTime="0.00" waitingCount="0" stopTime="0.00" timeLoss="31.43" rerouteNo="0" devices="tripinfo_Costa_12_11" vType="passenger2a" speedFactor="1.08" vaporized=""/>
    <tripinfo id="Costa_12_14" depart="36.00" departLane="78[0]_0" departPos="0.00" departSpeed="0.00" departDelay="0.00" arrival="158.00" arrivalLane="136_0" arrivalPos="186.20" arrivalSpeed="13.70" duration="122.00" routeLength="1413.62" waitingTime="0.00" waitingCount="0" stopTime="0.00" timeLoss="23.62" rerouteNo="0" devices="tripinfo_Costa_12_14" vType="passenger3" speedFactor="1.06" vaporized=""/>
    <tripinfo id="Costa_12_13" depart="33.00" departLane="78[0]_0" departPos="0.00" departSpeed="0.00" departDelay="0.00" arrival="160.00" arrivalLane="136_0" arrivalPos="186.20" arrivalSpeed="14.23" duration="127.00" routeLength="1416.45" waitingTime="5.00" waitingCount="1" stopTime="0.00" timeLoss="31.55" rerouteNo="0" devices="tripinfo_Costa_12_13" vType="passenger2b" speedFactor="1.10" vaporized=""/>
    <tripinfo id="XXI_Aprile_1_17" depart="60.00" departLane="13_0" departPos="0.00" departSpeed="0.00" departDelay="0.00" arrival="161.00" arrivalLane="86_0" arrivalPos="321.19" arrivalSpeed="12.41" duration="101.00" routeLength="1119.18" waitingTime="0.00" waitingCount="0" stopTime="0.00" timeLoss="14.09" rerouteNo="0" devices="tripinfo_XXI_Aprile_1_17" vType="passenger3" speedFactor="0.94" vaporized=""/>
    <tripinfo id="XXI_Aprile_12_10" depart="35.00" departLane="13_0" departPos="0.00" departSpeed="0.00" departDelay="0.00" arrival="164.00" arrivalLane="136_0" arrivalPos="186.20" arrivalSpeed="13.54" duration="129.00" routeLength="1343.89" waitingTime="5.00" waitingCount="2" stopTime="0.00" timeLoss="27.69" rerouteNo="0" devices="tripinfo_XXI_Aprile_12_10" vType="passenger1" speedFactor="0.98" vaporized=""/>
    <tripinfo id="Pepoli_11_3" depart="5.00" departLane="210_1" departPos="0.00" departSpeed="0.00" departDelay="0.00" arrival="171.00" arrivalLane="114_0" arrivalPos="692.70" arrivalSpeed="10.77" duration="166.00" routeLength="1738.36" waitingTime="0.00" waitingCount="0" stopTime="0.00" timeLoss="10.27" rerouteNo="0" devices="tripinfo_Pepoli_11_3" vType="passenger5" speedFactor="0.80" vaporized=""/>
    <tripinfo id="XXI_Aprile_12_11" depart="39.00" departLane="13_0" departPos="0.00" departSpeed="0.00" departDelay="0.00" arrival="171.00" arrivalLane="136_0" arrivalPos="186.20" arrivalSpeed="13.45" duration="132.00" routeLength="1343.89" waitingTime="4.00" waitingCount="4" stopTime="0.00" timeLoss="30.24" rerouteNo="0" devices="tripinfo_XXI_Aprile_12_11" vType="passenger4" speedFactor="0.98" vaporized=""/>
    <tripinfo id="Pepoli_8_62" depart="106.00" departLane="210_0" departPos="0.00" departSpeed="0.00" departDelay="0.00" arrival="171.00" arrivalLane="134b_0" arrivalPos="156.17" arrivalSpeed="12.42" duration="65.00" routeLength="692.71" waitingTime="0.00" waitingCount="0" stopTime="0.00" timeLoss="7.72" rerouteNo="0" devices="tripinfo_Pepoli_8_62" vType="passenger1" speedFactor="0.90" vaporized=""/>
    <tripinfo id="Pepoli_11_17" depart="29.00" departLane="210_1" departPos="0.00" departSpeed="0.00" departDelay="0.00" arrival="172.00" arrivalLane="114_1" arrivalPos="692.70" arrivalSpeed="12.48" duration="143.00" routeLength="1738.36" waitingTime="0.00" waitingCount="0" stopTime="0.00" timeLoss="9.21" rerouteNo="0" devices="tripinfo_Pepoli_11_17" vType="passenger4" speedFactor="0.94" vaporized=""/>
    <tripinfo id="Pepoli_11_24" depart="41.00" departLane="210_1" departPos="0.00" departSpeed="0.00" departDelay="0.00" arrival="173.00" arrivalLane="114_1" arrivalPos="692.70" arrivalSpeed="13.61" duration="132.00" routeLength="1738.36" waitingTime="0.00" waitingCount="0" stopTime="0.00" timeLoss="9.43" rerouteNo="0" devices="tripinfo_Pepoli_11_24" vType="passenger1" speedFactor="1.02" vaporized=""/>
    <tripinfo id="Costa_12_18" depart="47.00" departLane="78[0]_0" departPos="0.00" departSpeed="0.00" departDelay="0.00" arrival="173.00" arrivalLane="136_0" arrivalPos="186.20" arrivalSpeed="15.28" duration="126.00" routeLength="1413.62" waitingTime="2.00" waitingCount="1" stopTime="0.00" timeLoss="32.06" rerouteNo="0" devices="tripinfo_Costa_12_18" vType="passenger1" speedFactor="1.11" vaporized=""/>
    <tripinfo id="Pepoli_11_9" depart="20.00" departLane="210_1" departPos="0.00" departSpeed="0.00" departDelay="5.00" arrival="174.00" arrivalLane="114_1" arrivalPos="692.70" arrivalSpeed="11.56" duration="154.00" routeLength="1735.40" waitingTime="0.00" waitingCount="0" stopTime="0.00" timeLoss="10.89" rerouteNo="0" devices="tripinfo_Pepoli_11_9" vType="passenger2b" speedFactor="0.88" vaporized=""/>
    <tripinfo id="Pepoli_8_70" depart="121.00" departLane="210_0" departPos="0.00" departSpeed="0.00" departDelay="1.00" arrival="174.00" arrivalLane="134b_0" arrivalPos="156.17" arrivalSpeed="15.05" duration="53.00" routeLength="692.71" waitingTime="0.00" waitingCount="0" stopTime="0.00" timeLoss="6.50" rerouteNo="0" devices="tripinfo_Pepoli_8_70" vType="passenger1" speedFactor="1.11" vaporized=""/>
    <tripinfo id="Pepoli_11_7" depart="14.00" departLane="210_1" departPos="0.00" departSpeed="0.00" departDelay="2.00" arrival="175.00" arrivalLane="114_0" arrivalPos="692.70" arrivalSpeed="10.74" duration="161.00" routeLength="1738.36" waitingTime="0.00" waitingCount="0" stopTime="0.00" timeLoss="10.73" rerouteNo="0" devices="tripinfo_Pepoli_11_7" vType="passenger5" speedFactor="0.83" vaporized=""/>
    <tripinfo id="XXI_Aprile_7_0" depart="0.00" departLane="8_0" departPos="0.00" departSpeed="0.00" departDelay="0.00" arrival="179.00" arrivalLane="209_0" arrivalPos="395.59" arrivalSpeed="13.06" duration="179.00" routeLength="2111.89" waitingTime="0.00" waitingCount="0" stopTime="0.00" timeLoss="24.63" rerouteNo="0" devices="tripinfo_XXI_Aprile_7_0" vType="passenger1" speedFactor="1.01" vaporized=""/>
    <tripinfo id="Costa_12_23" depart="61.00" departLane="78[0]_0" departPos="0.00" departSpeed="0.00" departDelay="1.00" arrival="181.00" arrivalLane="136_0" arrivalPos="186.20" arrivalSpeed="13.42" duration="120.00" routeLength="1416.45" waitingTime="0.00" waitingCount="0" stopTime="0.00" timeLoss="18.16" rerouteNo="0" devices="tripinfo_Costa_12_23" vType="passenger2b" speedFactor="1.03" vaporized=""/>
    <tripinfo id="Costa_3_33" depart="88.00" departLane="78[0]_0" departPos="0.00" departSpeed="0.00" departDelay="2.00" arrival="181.00" arrivalLane="14_0" arrivalPos="77.26" arrivalSpeed="11.99" duration="93.00" routeLength="850.23" waitingTime="0.00" waitingCount="0" stopTime="0.00" timeLoss="27.80" rerouteNo="0" devices="tripinfo_Costa_3_33" vType="passenger2b" speedFactor="0.95" vaporized=""/>
    <tripinfo id="Pepoli_8_75" depart="128.00" departLane="210_0" departPos="0.00" departSpeed="0.00" departDelay="0.00" arrival="181.00" arrivalLane="134b_0" arrivalPos="156.17" arrivalSpeed="16.31" duration="53.00" routeLength="692.71" waitingTime="0.00" waitingCount="0" stopTime="0.00" timeLoss="11.12" rerouteNo="0" devices="tripinfo_Pepoli_8_75" vType="passenger2b" speedFactor="1.22" vaporized=""/>
    <tripinfo id="Costa_12_24" depart="64.00" departLane="78[0]_0" departPos="0.00" departSpeed="0.00" departDelay="2.00" arrival="183.00" arrivalLane="136_0" arrivalPos="186.20" arrivalSpeed="16.10" duration="119.00" routeLength="1416.45" waitingTime="0.00" waitingCount="0" stopTime="0.00" timeLoss="29.96" rerouteNo="0" devices="tripinfo_Costa_12_24" vType="passenger1" speedFactor="1.18" vaporized=""/>
    <tripinfo id="Costa_1_28" depart="75.00" departLane="78[0]_0" departPos="0.00" departSpeed="0.00" departDelay="2.00" arrival="184.00" arrivalLane="86_0" arrivalPos="321.19" arrivalSpeed="12.24" duration="109.00" routeLength="1191.74" waitingTime="0.00" waitingCount="0" stopTime="0.00" timeLoss="12.49" rerouteNo="0" devices="tripinfo_Costa_1_28" vType="passenger2a" speedFactor="0.91" vaporized=""/>
    <tripinfo id="XXI_Aprile_12_21" depart="75.00" departLane="13_0" departPos="0.00" departSpeed="0.00" departDelay="1.00" arrival="185.00" arrivalLane="136_0" arrivalPos="186.20" arrivalSpeed="15.10" duration="110.00" routeLength="1343.89" waitingTime="0.00" waitingCount="0" stopTime="0.00" timeLoss="19.33" rerouteNo="0" devices="tripinfo_XXI_Aprile_12_21" vType="passenger2b" speedFactor="1.09" vaporized=""/>
    <tripinfo id="Costa_3_38" depart="102.00" departLane="78[0]_0" departPos="0.00" departSpeed="0.00" departDelay="3.00" arrival="185.00" arrivalLane="14_0" arrivalPos="77.26" arrivalSpeed="12.02" duration="83.00" routeLength="850.23" waitingTime="0.00" waitingCount="0" stopTime="0.00" timeLoss="17.80" rerouteNo="0" devices="tripinfo_Costa_3_38" vType="passenger1" speedFactor="0.96" vaporized=""/>
    <tripinfo id="XXI_Aprile_7_1" depart="3.00" departLane="8_0" departPos="0.00" departSpeed="0.00" departDelay="0.00" arrival="188.00" arrivalLane="209_0" arrivalPos="395.59" arrivalSpeed="13.16" duration="185.00" routeLength="2111.89" waitingTime="0.00" waitingCount="0" stopTime="0.00" timeLoss="25.94" rerouteNo="0" devices="tripinfo_XXI_Aprile_7_1" vType="passenger1" speedFactor="0.99" vaporized=""/>
    <tripinfo id="Costa_12_29" depart="77.00" departLane="78[0]_0" departPos="0.00" departSpeed="0.00" departDelay="2.00" arrival="192.00" arrivalLane="136_0" arrivalPos="186.20" arrivalSpeed="14.13" duration="115.00" routeLength="1413.62" waitingTime="0.00" waitingCount="0" stopTime="0.00" timeLoss="20.34" rerouteNo="0" devices="tripinfo_Costa_12_29" vType="passenger2a" speedFactor="1.11" vaporized=""/>
    <tripinfo id="XXI_Aprile_1_27" depart="96.00" departLane="13_0" departPos="0.00" departSpeed="0.00" departDelay="0.00" arrival="192.00" arrivalLane="86_0" arrivalPos="321.19" arrivalSpeed="13.02" duration="96.00" routeLength="1119.18" waitingTime="0.00" waitingCount="0" stopTime="0.00" timeLoss="11.81" rerouteNo="0" devices="tripinfo_XXI_Aprile_1_27" vType="passenger1" speedFactor="0.98" vaporized=""/>
    <tripinfo id="XXI_Aprile_7_7" depart="24.00" departLane="8_0" departPos="0.00" departSpeed="0.00" departDelay="0.00" arrival="197.00" arrivalLane="209_0" arrivalPos="395.59" arrivalSpeed="14.61" duration="173.00" routeLength="2111.89" waitingTime="0.00" waitingCount="0" stopTime="0.00" timeLoss="24.99" rerouteNo="0" devices="tripinfo_XXI_Aprile_7_7" vType="passenger1" speedFactor="1.06" vaporized=""/>
    <tripinfo id="Pepoli_11_45" depart="77.00" departLane="210_1" departPos="0.00" departSpeed="0.00" departDelay="0.00" arrival="197.00" arrivalLane="114_2" arrivalPos="692.70" arrivalSpeed="15.08" duration="120.00" routeLength="1735.40" waitingTime="0.00" waitingCount="0" stopTime="0.00" timeLoss="9.74" rerouteNo="0" devices="tripinfo_Pepoli_11_45" vType="passenger4" speedFactor="1.14" vaporized=""/>
    <tripinfo id="Pepoli_11_30" depart="51.00" departLane="210_1" departPos="0.00" departSpeed="0.00" departDelay="0.00" arrival="198.00" arrivalLane="114_0" arrivalPos="692.70" arrivalSpeed="11.93" duration="147.00" routeLength="1735.40" waitingTime="0.00" waitingCount="0" stopTime="0.00" timeLoss="11.03" rerouteNo="0" devices="tripinfo_Pepoli_11_30" vType="passenger1" speedFactor="0.92" vaporized=""/>
    <tripinfo id="Pepoli_11_32" depart="55.00" departLane="210_1" departPos="0.00" departSpeed="0.00" departDelay="1.00" arrival="198.00" arrivalLane="114_1" arrivalPos="692.70" arrivalSpeed="12.89" duration="143.00" routeLength="1735.40" waitingTime="0.00" waitingCount="0" stopTime="0.00" timeLoss="13.35" rerouteNo="0" devices="tripinfo_Pepoli_11_32" vType="passenger2a" speedFactor="0.97" vaporized=""/>
    <tripinfo id="Pepoli_11_35" depart="61.00" departLane="210_1" departPos="0.00" departSpeed="0.00" departDelay="1.00" arrival="206.00" arrivalLane="114_0" arrivalPos="692.70" arrivalSpeed="12.83" duration="145.00" routeLength="1735.40" waitingTime="0.00" waitingCount="0" stopTime="0.00" timeLoss="9.99" rerouteNo="0" devices="tripinfo_Pepoli_11_35" vType="passenger2b" speedFactor="0.93" vaporized=""/>
    <tripinfo id="Pepoli_11_37" depart="67.00" departLane="210_1" departPos="0.00" departSpeed="0.00" departDelay="4.00" arrival="207.00" arrivalLane="114_1" arrivalPos="692.70" arrivalSpeed="12.54" duration="140.00" routeLength="1735.40" waitingTime="0.00" waitingCount="0" stopTime="0.00" timeLoss="10.40" rerouteNo="0" devices="tripinfo_Pepoli_11_37" vType="passenger3" speedFactor="0.97" vaporized=""/>
    <tripinfo id="XXI_Aprile_1_35" depart="124.00" departLane="13_0" departPos="0.00" departSpeed="0.00" departDelay="0.00" arrival="208.00" arrivalLane="86_1" arrivalPos="321.19" arrivalSpeed="14.58" duration="84.00" routeLength="1119.18" waitingTime="0.00" waitingCount="0" stopTime="0.00" timeLoss="9.47" rerouteNo="0" devices="tripinfo_XXI_Aprile_1_35" vType="passenger2b" speedFactor="1.10" vaporized=""/>
    <tripinfo id="XXI_Aprile_12_23" depart="81.00" departLane="13_0" departPos="0.00" departSpeed="0.00" departDelay="0.00" arrival="211.00" arrivalLane="136_0" arrivalPos="186.20" arrivalSpeed="12.18" duration="130.00" routeLength="1343.89" waitingTime="5.00" waitingCount="1" stopTime="0.00" timeLoss="25.50" rerouteNo="0" devices="tripinfo_XXI_Aprile_12_23" vType="passenger2b" speedFactor="0.95" vaporized=""/>
    <tripinfo id="Pepoli_11_54" depart="95.00" departLane="210_1" departPos="0.00" departSpeed="0.00" departDelay="3.00" arrival="212.00" arrivalLane="114_1" arrivalPos="692.70" arrivalSpeed="15.04" duration="117.00" routeLength="1735.40" waitingTime="0.00" waitingCount="0" stopTime="0.00" timeLoss="8.72" rerouteNo="0" devices="tripinfo_Pepoli_11_54" vType="passenger2a" speedFactor="1.16" vaporized=""/>
    <tripinfo id="Pepoli_11_36" depart="63.00" departLane="210_1" departPos="0.00" departSpeed="0.00" departDelay="2.00" arrival="213.00" arrivalLane="114_0" arrivalPos="692.70" arrivalSpeed="11.60" duration="150.00" routeLength="1735.40" waitingTime="0.00" waitingCount="0" stopTime="0.00" timeLoss="12.33" rerouteNo="0" devices="tripinfo_Pepoli_11_36" vType="passenger1" speedFactor="0.91" vaporized=""/>
    <tripinfo id="Pepoli_8_86" depart="147.00" departLane="210_0" departPos="0.00" departSpeed="0.00" departDelay="0.00" arrival="214.00" arrivalLane="134b_0" arrivalPos="156.17" arrivalSpeed="11.05" duration="67.00" routeLength="692.71" waitingTime="0.00" waitingCount="0" stopTime="0.00" timeLoss="8.22" rerouteNo="0" devices="tripinfo_Pepoli_8_86" vType="passenger3" speedFactor="0.87" vaporized=""/>
    <tripinfo id="XXI_Aprile_7_8" depart="28.00" departLane="8_0" departPos="0.00" departSpeed="0.00" departDelay="0.00" arrival="215.00" arrivalLane="209_0" arrivalPos="395.59" arrivalSpeed="12.78" duration="187.00" routeLength="2111.89" waitingTime="3.00" waitingCount="1" stopTime="0.00" timeLoss="30.01" rerouteNo="0" devices="tripinfo_XXI_Aprile_7_8" vType="passenger1" speedFactor="1.01" vaporized=""/>
    <tripinfo id="Costa_700_16" depart="42.00" departLane="78[0]_0" departPos="0.00" departSpeed="0.00" departDelay="1.00" arrival="216.00" arrivalLane="209_1" arrivalPos="395.59" arrivalSpeed="14.10" duration="174.00" routeLength="2147.44" waitingTime="0.00" waitingCount="0" stopTime="0.00" timeLoss="21.44" rerouteNo="0" devices="tripinfo_Costa_700_16" vType="passenger2b" speedFactor="1.03" vaporized=""/>
    <tripinfo id="Costa_50_6" depart="17.00" departLane="78[0]_0" departPos="0.00" departSpeed="0.00" departDelay="2.00" arrival="220.00" arrivalLane="60_0" arrivalPos="208.90" arrivalSpeed="11.89" duration="203.00" routeLength="2260.66" waitingTime="0.00" waitingCount="0" stopTime="0.00" timeLoss="27.00" rerouteNo="0" devices="tripinfo_Costa_50_6" vType="passenger2a" speedFactor="0.95" vaporized=""/>
    <tripinfo id="XXI_Aprile_7_13" depart="46.00" departLane="8_0" departPos="0.00" departSpeed="0.00" departDelay="0.00" arrival="220.00" arrivalLane="209_0" arrivalPos="395.59" arrivalSpeed="13.45" duration="174.00" routeLength="2111.89" waitingTime="0.00" waitingCount="0" stopTime="0.00" timeLoss="24.59" rerouteNo="0" devices="tripinfo_XXI_Aprile_7_13" vType="passenger1" speedFactor="1.06" vaporized=""/>
    <tripinfo id="Pepoli_8_91" depart="156.00" departLane="210_0" departPos="0.00" departSpeed="0.00" departDelay="0.00" arrival="221.00" arrivalLane="134b_0" arrivalPos="156.17" arrivalSpeed="11.42" duration="65.00" routeLength="692.71" waitingTime="0.00" waitingCount="0" stopTime="0.00" timeLoss="6.74" rerouteNo="0" devices="tripinfo_Pepoli_8_91" vType="passenger2a" speedFactor="0.89" vaporized=""/>