<?xml version="1.0" encoding="UTF-8"?>

<!-- generated on 2025-04-16 01:28:42 by Eclipse SUMO sumo Version 1.22.0
<sumoConfiguration xmlns:xsi="http://www.w3.org/2001/XMLSchema-instance" xsi:noNamespaceSchemaLocation="http://sumo.dlr.de/xsd/sumoConfiguration.xsd">

    <input>
        <net-file value="acosta_buslanes.net.xml"/>
        <route-files value="route_mixed_episode_376.rou.xml"/>
        <additional-files value="acosta_vtypes.add.xml,acosta_detectors.add.xml,acosta_bus_stops.add.xml,acosta_tls.add.xml"/>
    </input>

    <output>
        <tripinfo-output value="tripinfos.xml"/>
    </output>

    <processing>
        <time-to-teleport value="300"/>
        <waiting-time-memory value="3600"/>
        <max-depart-delay value="100000"/>
    </processing>

    <report>
        <no-warnings value="true"/>
        <log value="../output/sumo.log"/>
        <message-log value="../output/sumo_messages.log"/>
        <error-log value="../output/sumo_errors.log"/>
        <no-step-log value="true"/>
    </report>

    <traci_server>
        <remote-port value="49329"/>
    </traci_server>

    <gui_only>
        <gui-settings-file value="settings.gui.xml"/>
    </gui_only>

</sumoConfiguration>
-->

<tripinfos xmlns:xsi="http://www.w3.org/2001/XMLSchema-instance" xsi:noNamespaceSchemaLocation="http://sumo.dlr.de/xsd/tripinfo_file.xsd">
    <tripinfo id="heavy_3157" depart="15.00" departLane="56b_0" departPos="5.10" departSpeed="0.00" departDelay="0.20" arrival="54.00" arrivalLane="49_0" arrivalPos="152.38" arrivalSpeed="14.54" duration="39.00" routeLength="503.08" waitingTime="0.00" waitingCount="0" stopTime="0.00" timeLoss="5.83" rerouteNo="0" devices="tripinfo_heavy_3157" vType="DEFAULT_VEHTYPE" speedFactor="1.13" vaporized=""/>
    <tripinfo id="heavy_3147" depart="3.00" departLane="9_0" departPos="5.10" departSpeed="0.00" departDelay="0.60" arrival="83.00" arrivalLane="28_0" arrivalPos="60.54" arrivalSpeed="11.76" duration="80.00" routeLength="849.64" waitingTime="0.00" waitingCount="0" stopTime="0.00" timeLoss="12.09" rerouteNo="0" devices="tripinfo_heavy_3147" vType="DEFAULT_VEHTYPE" speedFactor="0.94" vaporized=""/>
    <tripinfo id="heavy_3164" depart="27.00" departLane="125_0" departPos="5.10" departSpeed="0.00" departDelay="0.00" arrival="83.00" arrivalLane="114_0" arrivalPos="693.70" arrivalSpeed="13.98" duration="56.00" routeLength="725.22" waitingTime="0.00" waitingCount="0" stopTime="0.00" timeLoss="5.24" rerouteNo="0" devices="tripinfo_heavy_3164" vType="DEFAULT_VEHTYPE" speedFactor="1.03" vaporized=""/>
    <tripinfo id="medium_1044" depart="58.00" departLane="204b[0]_0" departPos="0.20" departSpeed="0.00" departDelay="0.50" arrival="83.00" arrivalLane="54_0" arrivalPos="301.28" arrivalSpeed="14.63" duration="25.00" routeLength="310.70" waitingTime="0.00" waitingCount="0" stopTime="0.00" timeLoss="3.28" rerouteNo="0" devices="tripinfo_medium_1044" vType="DEFAULT_VEHTYPE" speedFactor="1.10" vaporized=""/>
    <tripinfo id="light_9" depart="32.00" departLane="118_0" departPos="5.10" departSpeed="0.00" departDelay="0.00" arrival="85.00" arrivalLane="60_0" arrivalPos="209.90" arrivalSpeed="11.12" duration="53.00" routeLength="556.02" waitingTime="0.00" waitingCount="0" stopTime="0.00" timeLoss="6.24" rerouteNo="0" devices="tripinfo_light_9" vType="DEFAULT_VEHTYPE" speedFactor="0.88" vaporized=""/>
    <tripinfo id="heavy_3168" depart="33.00" departLane="8_0" departPos="5.10" departSpeed="0.00" departDelay="3.20" arrival="88.00" arrivalLane="41_0" arrivalPos="37.24" arrivalSpeed="13.54" duration="55.00" routeLength="654.36" waitingTime="0.00" waitingCount="0" stopTime="0.00" timeLoss="6.80" rerouteNo="0" devices="tripinfo_heavy_3168" vType="DEFAULT_VEHTYPE" speedFactor="1.00" vaporized=""/>
    <tripinfo id="medium_1026" depart="21.00" departLane="8_0" departPos="5.10" departSpeed="0.00" departDelay="0.00" arrival="92.00" arrivalLane="74_0" arrivalPos="255.03" arrivalSpeed="15.67" duration="71.00" routeLength="992.63" waitingTime="0.00" waitingCount="0" stopTime="0.00" timeLoss="9.48" rerouteNo="0" devices="tripinfo_medium_1026" vType="DEFAULT_VEHTYPE" speedFactor="1.17" vaporized=""/>
    <tripinfo id="heavy_3190" depart="51.00" departLane="9_0" departPos="5.10" departSpeed="0.00" departDelay="0.60" arrival="92.00" arrivalLane="30_0" arrivalPos="38.53" arrivalSpeed="14.38" duration="41.00" routeLength="429.06" waitingTime="0.00" waitingCount="0" stopTime="0.00" timeLoss="11.92" rerouteNo="0" devices="tripinfo_heavy_3190" vType="DEFAULT_VEHTYPE" speedFactor="1.15" vaporized=""/>
    <tripinfo id="heavy_3182" depart="40.00" departLane="210_0" departPos="5.10" departSpeed="0.00" departDelay="0.60" arrival="93.00" arrivalLane="65_0" arrivalPos="98.88" arrivalSpeed="13.75" duration="53.00" routeLength="657.93" waitingTime="0.00" waitingCount="0" stopTime="0.00" timeLoss="5.86" rerouteNo="0" devices="tripinfo_heavy_3182" vType="DEFAULT_VEHTYPE" speedFactor="1.02" vaporized=""/>
    <tripinfo id="heavy_3163" depart="27.00" departLane="8_0" departPos="5.10" departSpeed="0.00" departDelay="0.80" arrival="94.00" arrivalLane="28_0" arrivalPos="60.54" arrivalSpeed="14.44" duration="67.00" routeLength="853.53" waitingTime="0.00" waitingCount="0" stopTime="0.00" timeLoss="9.81" rerouteNo="0" devices="tripinfo_heavy_3163" vType="DEFAULT_VEHTYPE" speedFactor="1.10" vaporized=""/>
    <tripinfo id="heavy_3205" depart="69.00" departLane="224[0]_0" departPos="5.10" departSpeed="0.00" departDelay="0.60" arrival="99.00" arrivalLane="222_0" arrivalPos="20.25" arrivalSpeed="12.94" duration="30.00" routeLength="357.36" waitingTime="0.00" waitingCount="0" stopTime="0.00" timeLoss="3.93" rerouteNo="0" devices="tripinfo_heavy_3205" vType="DEFAULT_VEHTYPE" speedFactor="1.01" vaporized=""/>
    <tripinfo id="medium_1040" depart="51.00" departLane="89[1][1]_0" departPos="5.10" departSpeed="0.00" departDelay="0.50" arrival="104.00" arrivalLane="134b_0" arrivalPos="157.17" arrivalSpeed="12.43" duration="53.00" routeLength="640.40" waitingTime="0.00" waitingCount="0" stopTime="0.00" timeLoss="5.29" rerouteNo="0" devices="tripinfo_medium_1040" vType="DEFAULT_VEHTYPE" speedFactor="0.98" vaporized=""/>
    <tripinfo id="heavy_3197" depart="57.00" departLane="220b_0" departPos="5.10" departSpeed="0.00" departDelay="0.40" arrival="108.00" arrivalLane="49_0" arrivalPos="152.38" arrivalSpeed="13.95" duration="51.00" routeLength="549.59" waitingTime="0.00" waitingCount="0" stopTime="0.00" timeLoss="10.23" rerouteNo="0" devices="tripinfo_heavy_3197" vType="DEFAULT_VEHTYPE" speedFactor="1.01" vaporized=""/>
    <tripinfo id="heavy_3153" depart="11.00" departLane="133_0" departPos="5.10" departSpeed="0.00" departDelay="0.00" arrival="110.00" arrivalLane="54_0" arrivalPos="301.28" arrivalSpeed="15.32" duration="99.00" routeLength="984.30" waitingTime="23.00" waitingCount="1" stopTime="0.00" timeLoss="36.57" rerouteNo="0" devices="tripinfo_heavy_3153" vType="DEFAULT_VEHTYPE" speedFactor="1.16" vaporized=""/>
    <tripinfo id="medium_1032" depart="37.00" departLane="135_0" departPos="5.10" departSpeed="0.00" departDelay="0.00" arrival="118.00" arrivalLane="86_0" arrivalPos="322.19" arrivalSpeed="14.05" duration="81.00" routeLength="865.73" waitingTime="6.00" waitingCount="1" stopTime="0.00" timeLoss="19.43" rerouteNo="0" devices="tripinfo_medium_1032" vType="DEFAULT_VEHTYPE" speedFactor="1.02" vaporized=""/>
    <tripinfo id="light_12" depart="43.00" departLane="210_0" departPos="5.10" departSpeed="0.00" departDelay="2.00" arrival="118.00" arrivalLane="197_0" arrivalPos="204.11" arrivalSpeed="13.00" duration="75.00" routeLength="871.93" waitingTime="0.00" waitingCount="0" stopTime="0.00" timeLoss="8.02" rerouteNo="0" devices="tripinfo_light_12" vType="DEFAULT_VEHTYPE" speedFactor="0.97" vaporized=""/>
    <tripinfo id="heavy_3208" depart="71.00" departLane="25_0" departPos="5.10" departSpeed="0.00" departDelay="0.20" arrival="120.00" arrivalLane="80_0" arrivalPos="125.15" arrivalSpeed="13.39" duration="49.00" routeLength="473.11" waitingTime="2.00" waitingCount="1" stopTime="0.00" timeLoss="12.87" rerouteNo="0" devices="tripinfo_heavy_3208" vType="DEFAULT_VEHTYPE" speedFactor="0.99" vaporized=""/>
    <tripinfo id="medium_1036" depart="41.00" departLane="51_0" departPos="5.10" departSpeed="0.00" departDelay="0.00" arrival="126.00" arrivalLane="206_0" arrivalPos="95.43" arrivalSpeed="12.65" duration="85.00" routeLength="823.63" waitingTime="0.00" waitingCount="0" stopTime="0.00" timeLoss="18.18" rerouteNo="0" devices="tripinfo_medium_1036" vType="DEFAULT_VEHTYPE" speedFactor="0.94" vaporized=""/>
    <tripinfo id="heavy_3149" depart="5.00" departLane="119_0" departPos="5.10" departSpeed="0.00" departDelay="0.60" arrival="127.00" arrivalLane="209_0" arrivalPos="396.59" arrivalSpeed="13.84" duration="122.00" routeLength="823.87" waitingTime="48.00" waitingCount="1" stopTime="0.00" timeLoss="63.09" rerouteNo="0" devices="tripinfo_heavy_3149" vType="DEFAULT_VEHTYPE" speedFactor="1.05" vaporized=""/>
    <tripinfo id="heavy_3218" depart="81.00" departLane="137_0" departPos="5.10" departSpeed="0.00" departDelay="0.40" arrival="131.00" arrivalLane="136_0" arrivalPos="187.20" arrivalSpeed="14.33" duration="50.00" routeLength="613.14" waitingTime="0.00" waitingCount="0" stopTime="0.00" timeLoss="6.74" rerouteNo="0" devices="tripinfo_heavy_3218" vType="DEFAULT_VEHTYPE" speedFactor="1.04" vaporized=""/>
    <tripinfo id="heavy_3184" depart="44.00" departLane="220b_0" departPos="5.10" departSpeed="0.00" departDelay="0.60" arrival="137.00" arrivalLane="26_0" arrivalPos="336.25" arrivalSpeed="12.15" duration="93.00" routeLength="962.40" waitingTime="2.00" waitingCount="1" stopTime="0.00" timeLoss="17.44" rerouteNo="0" devices="tripinfo_heavy_3184" vType="DEFAULT_VEHTYPE" speedFactor="0.96" vaporized=""/>
    <tripinfo id="heavy_3181" depart="40.00" departLane="131_0" departPos="5.10" departSpeed="0.00" departDelay="0.80" arrival="144.00" arrivalLane="134b_0" arrivalPos="157.17" arrivalSpeed="12.92" duration="104.00" routeLength="882.52" waitingTime="24.00" waitingCount="1" stopTime="0.00" timeLoss="40.67" rerouteNo="0" devices="tripinfo_heavy_3181" vType="DEFAULT_VEHTYPE" speedFactor="1.02" vaporized=""/>
    <tripinfo id="light_6" depart="24.00" departLane="137_0" departPos="5.10" departSpeed="0.00" departDelay="0.00" arrival="145.00" arrivalLane="127_0" arrivalPos="15.68" arrivalSpeed="13.34" duration="121.00" routeLength="1065.47" waitingTime="15.00" waitingCount="3" stopTime="0.00" timeLoss="39.41" rerouteNo="0" devices="tripinfo_light_6" vType="DEFAULT_VEHTYPE" speedFactor="0.97" vaporized=""/>
    <tripinfo id="heavy_3214" depart="81.00" departLane="89[1][1]_0" departPos="5.10" departSpeed="0.00" departDelay="3.20" arrival="146.00" arrivalLane="134b_0" arrivalPos="157.17" arrivalSpeed="13.41" duration="65.00" routeLength="640.40" waitingTime="9.00" waitingCount="1" stopTime="0.00" timeLoss="19.85" rerouteNo="0" devices="tripinfo_heavy_3214" vType="DEFAULT_VEHTYPE" speedFactor="1.03" vaporized=""/>
    <tripinfo id="heavy_3204" depart="69.00" departLane="203[1]b_0" departPos="0.20" departSpeed="0.00" departDelay="0.60" arrival="147.00" arrivalLane="200_0" arrivalPos="82.99" arrivalSpeed="13.97" duration="78.00" routeLength="714.49" waitingTime="15.00" waitingCount="1" stopTime="0.00" timeLoss="29.65" rerouteNo="0" devices="tripinfo_heavy_3204" vType="DEFAULT_VEHTYPE" speedFactor="1.10" vaporized=""/>
    <tripinfo id="medium_1045" depart="63.00" departLane="220b_0" departPos="5.10" departSpeed="0.00" departDelay="5.50" arrival="149.00" arrivalLane="26_0" arrivalPos="336.25" arrivalSpeed="14.31" duration="86.00" routeLength="962.40" waitingTime="0.00" waitingCount="0" stopTime="0.00" timeLoss="18.65" rerouteNo="0" devices="tripinfo_medium_1045" vType="DEFAULT_VEHTYPE" speedFactor="1.06" vaporized=""/>
    <tripinfo id="medium_1031" depart="33.00" departLane="219_0" departPos="5.10" departSpeed="0.00" departDelay="0.00" arrival="156.00" arrivalLane="60_0" arrivalPos="209.90" arrivalSpeed="15.25" duration="123.00" routeLength="1465.13" waitingTime="0.00" waitingCount="0" stopTime="0.00" timeLoss="29.03" rerouteNo="0" devices="tripinfo_medium_1031" vType="DEFAULT_VEHTYPE" speedFactor="1.17" vaporized=""/>
    <tripinfo id="light_1" depart="4.00" departLane="135_0" departPos="5.10" departSpeed="0.00" departDelay="2.00" arrival="157.00" arrivalLane="209_0" arrivalPos="396.59" arrivalSpeed="13.53" duration="153.00" routeLength="1756.46" waitingTime="5.00" waitingCount="1" stopTime="0.00" timeLoss="29.72" rerouteNo="0" devices="tripinfo_light_1" vType="DEFAULT_VEHTYPE" speedFactor="1.05" vaporized=""/>
    <tripinfo id="light_11" depart="39.00" departLane="85_0" departPos="5.10" departSpeed="0.00" departDelay="0.00" arrival="158.00" arrivalLane="219_0" arrivalPos="87.23" arrivalSpeed="12.14" duration="119.00" routeLength="980.74" waitingTime="18.00" waitingCount="1" stopTime="0.00" timeLoss="37.18" rerouteNo="0" devices="tripinfo_light_11" vType="DEFAULT_VEHTYPE" speedFactor="0.91" vaporized=""/>
    <tripinfo id="medium_1021" depart="6.00" departLane="189[1][0]+20000_1" departPos="5.10" departSpeed="0.00" departDelay="0.00" arrival="160.00" arrivalLane="60_0" arrivalPos="209.90" arrivalSpeed="14.35" duration="154.00" routeLength="1413.90" waitingTime="22.00" waitingCount="3" stopTime="0.00" timeLoss="61.36" rerouteNo="0" devices="tripinfo_medium_1021" vType="DEFAULT_VEHTYPE" speedFactor="1.12" vaporized=""/>
    <tripinfo id="heavy_3244" depart="118.00" departLane="8_0" departPos="5.10" departSpeed="0.00" departDelay="0.80" arrival="167.00" arrivalLane="30_0" arrivalPos="38.53" arrivalSpeed="13.07" duration="49.00" routeLength="527.61" waitingTime="0.00" waitingCount="0" stopTime="0.00" timeLoss="10.32" rerouteNo="0" devices="tripinfo_heavy_3244" vType="DEFAULT_VEHTYPE" speedFactor="1.03" vaporized=""/>
    <tripinfo id="heavy_3186" depart="47.00" departLane="131_0" departPos="5.10" departSpeed="0.00" departDelay="0.20" arrival="168.00" arrivalLane="201c_0" arrivalPos="8.16" arrivalSpeed="9.39" duration="121.00" routeLength="948.61" waitingTime="25.00" waitingCount="3" stopTime="0.00" timeLoss="51.51" rerouteNo="0" devices="tripinfo_heavy_3186" vType="DEFAULT_VEHTYPE" speedFactor="1.01" vaporized=""/>
    <tripinfo id="heavy_3203" depart="76.00" departLane="45_0" departPos="5.10" departSpeed="0.00" departDelay="9.60" arrival="173.00" arrivalLane="49_0" arrivalPos="152.38" arrivalSpeed="11.69" duration="97.00" routeLength="594.42" waitingTime="32.00" waitingCount="1" stopTime="0.00" timeLoss="49.48" rerouteNo="0" devices="tripinfo_heavy_3203" vType="DEFAULT_VEHTYPE" speedFactor="0.93" vaporized=""/>
    <tripinfo id="heavy_3146" depart="3.00" departLane="56a_0" departPos="5.10" departSpeed="0.00" departDelay="0.60" arrival="176.00" arrivalLane="134_0" arrivalPos="11.31" arrivalSpeed="12.02" duration="173.00" routeLength="1214.71" waitingTime="48.00" waitingCount="3" stopTime="0.00" timeLoss="72.83" rerouteNo="0" devices="tripinfo_heavy_3146" vType="DEFAULT_VEHTYPE" speedFactor="0.89" vaporized=""/>
    <tripinfo id="heavy_3178" depart="40.00" departLane="135_0" departPos="5.10" departSpeed="0.00" departDelay="1.60" arrival="180.00" arrivalLane="79_0" arrivalPos="150.90" arrivalSpeed="12.55" duration="140.00" routeLength="1115.54" waitingTime="26.00" waitingCount="2" stopTime="0.00" timeLoss="57.27" rerouteNo="0" devices="tripinfo_heavy_3178" vType="DEFAULT_VEHTYPE" speedFactor="0.99" vaporized=""/>
    <tripinfo id="heavy_3213" depart="77.00" departLane="8_0" departPos="5.10" departSpeed="0.00" departDelay="0.60" arrival="180.00" arrivalLane="86_0" arrivalPos="322.19" arrivalSpeed="13.06" duration="103.00" routeLength="1215.08" waitingTime="0.00" waitingCount="0" stopTime="0.00" timeLoss="15.75" rerouteNo="0" devices="tripinfo_heavy_3213" vType="DEFAULT_VEHTYPE" speedFactor="1.02" vaporized=""/>
    <tripinfo id="light_2" depart="8.00" departLane="109[1][1]_0" departPos="5.10" departSpeed="0.00" departDelay="0.00" arrival="181.00" arrivalLane="19_0" arrivalPos="69.17" arrivalSpeed="4.59" duration="173.00" routeLength="1586.59" waitingTime="10.00" waitingCount="2" stopTime="0.00" timeLoss="38.14" rerouteNo="0" devices="tripinfo_light_2" vType="DEFAULT_VEHTYPE" speedFactor="0.88" vaporized=""/>
    <tripinfo id="heavy_3180" depart="39.00" departLane="189[1][1]_0" departPos="5.10" departSpeed="0.00" departDelay="0.00" arrival="181.00" arrivalLane="26_0" arrivalPos="336.25" arrivalSpeed="14.07" duration="142.00" routeLength="1085.72" waitingTime="35.00" waitingCount="2" stopTime="0.00" timeLoss="65.58" rerouteNo="0" devices="tripinfo_heavy_3180" vType="DEFAULT_VEHTYPE" speedFactor="1.04" vaporized=""/>
    <tripinfo id="heavy_3199" depart="61.00" departLane="19_0" departPos="5.10" departSpeed="0.00" departDelay="3.40" arrival="184.00" arrivalLane="46_0" arrivalPos="66.81" arrivalSpeed="12.96" duration="123.00" routeLength="1344.23" waitingTime="0.00" waitingCount="0" stopTime="0.00" timeLoss="19.26" rerouteNo="0" devices="tripinfo_heavy_3199" vType="DEFAULT_VEHTYPE" speedFactor="0.96" vaporized=""/>
    <tripinfo id="heavy_3234" depart="106.00" departLane="12_0" departPos="5.10" departSpeed="0.00" departDelay="0.80" arrival="184.00" arrivalLane="26_0" arrivalPos="336.25" arrivalSpeed="13.49" duration="78.00" routeLength="563.18" waitingTime="28.00" waitingCount="1" stopTime="0.00" timeLoss="38.96" rerouteNo="0" devices="tripinfo_heavy_3234" vType="DEFAULT_VEHTYPE" speedFactor="1.05" vaporized=""/>
    <tripinfo id="heavy_3268" depart="134.00" departLane="13_0" departPos="5.10" departSpeed="0.00" departDelay="0.60" arrival="185.00" arrivalLane="189[0]_0" arrivalPos="5.07" arrivalSpeed="11.91" duration="51.00" routeLength="524.28" waitingTime="0.00" waitingCount="0" stopTime="0.00" timeLoss="8.02" rerouteNo="0" devices="tripinfo_heavy_3268" vType="DEFAULT_VEHTYPE" speedFactor="0.91" vaporized=""/>
    <tripinfo id="medium_1025" depart="15.00" departLane="119_0" departPos="5.10" departSpeed="0.00" departDelay="0.50" arrival="186.00" arrivalLane="209_0" arrivalPos="396.59" arrivalSpeed="11.86" duration="171.00" routeLength="823.87" waitingTime="79.00" waitingCount="3" stopTime="0.00" timeLoss="104.15" rerouteNo="0" devices="tripinfo_medium_1025" vType="DEFAULT_VEHTYPE" speedFactor="0.92" vaporized=""/>
    <tripinfo id="light_0" depart="1.00" departLane="161_0" departPos="5.10" departSpeed="0.00" departDelay="0.00" arrival="187.00" arrivalLane="30_0" arrivalPos="38.53" arrivalSpeed="13.49" duration="186.00" routeLength="2042.10" waitingTime="2.00" waitingCount="1" stopTime="0.00" timeLoss="34.59" rerouteNo="0" devices="tripinfo_light_0" vType="DEFAULT_VEHTYPE" speedFactor="1.01" vaporized=""/>
    <tripinfo id="heavy_3264" depart="133.00" departLane="44_0" departPos="5.10" departSpeed="0.00" departDelay="0.80" arrival="189.00" arrivalLane="219_0" arrivalPos="87.23" arrivalSpeed="11.19" duration="56.00" routeLength="501.01" waitingTime="0.00" waitingCount="0" stopTime="0.00" timeLoss="9.75" rerouteNo="0" devices="tripinfo_heavy_3264" vType="DEFAULT_VEHTYPE" speedFactor="0.83" vaporized=""/>
    <tripinfo id="heavy_3150" depart="7.00" departLane="78[0]_0" departPos="5.10" departSpeed="0.00" departDelay="0.80" arrival="191.00" arrivalLane="134b_0" arrivalPos="157.17" arrivalSpeed="13.67" duration="184.00" routeLength="1811.89" waitingTime="22.00" waitingCount="3" stopTime="0.00" timeLoss="51.77" rerouteNo="0" devices="tripinfo_heavy_3150" vType="DEFAULT_VEHTYPE" speedFactor="0.99" vaporized=""/>
    <tripinfo id="heavy_3202" depart="65.00" departLane="45_0" departPos="5.10" departSpeed="0.00" departDelay="0.40" arrival="191.00" arrivalLane="60_0" arrivalPos="209.90" arrivalSpeed="14.43" duration="126.00" routeLength="1430.50" waitingTime="6.00" waitingCount="1" stopTime="0.00" timeLoss="26.81" rerouteNo="0" devices="tripinfo_heavy_3202" vType="DEFAULT_VEHTYPE" speedFactor="1.06" vaporized=""/>
    <tripinfo id="heavy_3211" depart="77.00" departLane="211_0" departPos="5.10" departSpeed="0.00" departDelay="0.80" arrival="191.00" arrivalLane="66_0" arrivalPos="98.88" arrivalSpeed="14.35" duration="114.00" routeLength="1371.93" waitingTime="1.00" waitingCount="1" stopTime="0.00" timeLoss="22.48" rerouteNo="0" devices="tripinfo_heavy_3211" vType="DEFAULT_VEHTYPE" speedFactor="1.10" vaporized=""/>
    <tripinfo id="heavy_3198" depart="60.00" departLane="220b_0" departPos="5.10" departSpeed="0.00" departDelay="2.60" arrival="193.00" arrivalLane="60_0" arrivalPos="209.90" arrivalSpeed="15.23" duration="133.00" routeLength="1434.79" waitingTime="8.00" waitingCount="2" stopTime="0.00" timeLoss="37.44" rerouteNo="0" devices="tripinfo_heavy_3198" vType="DEFAULT_VEHTYPE" speedFactor="1.12" vaporized=""/>
    <tripinfo id="heavy_3301" depart="163.00" departLane="m2_0" departPos="5.10" departSpeed="0.00" departDelay="0.00" arrival="193.00" arrivalLane="54_0" arrivalPos="301.28" arrivalSpeed="12.72" duration="30.00" routeLength="339.94" waitingTime="0.00" waitingCount="0" stopTime="0.00" timeLoss="4.71" rerouteNo="0" devices="tripinfo_heavy_3301" vType="DEFAULT_VEHTYPE" speedFactor="0.98" vaporized=""/>
    <tripinfo id="medium_1022" depart="10.00" departLane="220b_0" departPos="5.10" departSpeed="0.00" departDelay="0.00" arrival="195.00" arrivalLane="134b_0" arrivalPos="157.17" arrivalSpeed="12.23" duration="185.00" routeLength="1731.11" waitingTime="14.00" waitingCount="3" stopTime="0.00" timeLoss="50.45" rerouteNo="0" devices="tripinfo_medium_1022" vType="DEFAULT_VEHTYPE" speedFactor="0.94" vaporized=""/>
    <tripinfo id="heavy_3170" depart="33.00" departLane="137_0" departPos="5.10" departSpeed="0.00" departDelay="0.00" arrival="197.00" arrivalLane="54_0" arrivalPos="301.28" arrivalSpeed="13.57" duration="164.00" routeLength="1757.78" waitingTime="5.00" waitingCount="2" stopTime="0.00" timeLoss="36.31" rerouteNo="0" devices="tripinfo_heavy_3170" vType="DEFAULT_VEHTYPE" speedFactor="1.02" vaporized=""/>
    <tripinfo id="heavy_3188" depart="49.00" departLane="135_0" departPos="5.10" departSpeed="0.00" departDelay="0.40" arrival="197.00" arrivalLane="26_0" arrivalPos="336.25" arrivalSpeed="13.52" duration="148.00" routeLength="1023.02" waitingTime="40.00" waitingCount="3" stopTime="0.00" timeLoss="75.55" rerouteNo="0" devices="tripinfo_heavy_3188" vType="DEFAULT_VEHTYPE" speedFactor="1.03" vaporized=""/>
    <tripinfo id="heavy_3276" depart="145.00" departLane="66_0" departPos="5.10" departSpeed="0.00" departDelay="0.80" arrival="197.00" arrivalLane="209_0" arrivalPos="396.59" arrivalSpeed="13.46" duration="52.00" routeLength="643.10" waitingTime="0.00" waitingCount="0" stopTime="0.00" timeLoss="6.18" rerouteNo="0" devices="tripinfo_heavy_3276" vType="DEFAULT_VEHTYPE" speedFactor="1.04" vaporized=""/>
    <tripinfo id="medium_1065" depart="113.00" departLane="65_0" departPos="5.10" departSpeed="0.00" departDelay="4.00" arrival="198.00" arrivalLane="134b_0" arrivalPos="157.17" arrivalSpeed="11.52" duration="85.00" routeLength="799.54" waitingTime="0.00" waitingCount="0" stopTime="0.00" timeLoss="18.40" rerouteNo="0" devices="tripinfo_medium_1065" vType="DEFAULT_VEHTYPE" speedFactor="0.89" vaporized=""/>
    <tripinfo id="light_27" depart="108.00" departLane="72[0]_0" departPos="5.10" departSpeed="0.00" departDelay="0.00" arrival="199.00" arrivalLane="1_0" arrivalPos="0.20" arrivalSpeed="10.88" duration="91.00" routeLength="906.62" waitingTime="2.00" waitingCount="1" stopTime="0.00" timeLoss="17.49" rerouteNo="0" devices="tripinfo_light_27" vType="DEFAULT_VEHTYPE" speedFactor="0.90" vaporized=""/>
    <tripinfo id="medium_1060" depart="101.00" departLane="12_0" departPos="5.10" departSpeed="0.00" departDelay="0.00" arrival="200.00" arrivalLane="20_0" arrivalPos="69.17" arrivalSpeed="15.96" duration="99.00" routeLength="690.08" waitingTime="35.00" waitingCount="1" stopTime="0.00" timeLoss="54.21" rerouteNo="0" devices="tripinfo_medium_1060" vType="DEFAULT_VEHTYPE" speedFactor="1.18" vaporized=""/>
    <tripinfo id="heavy_3298" depart="162.00" departLane="68_0" departPos="5.10" departSpeed="0.00" departDelay="0.40" arrival="206.00" arrivalLane="138_0" arrivalPos="192.62" arrivalSpeed="14.48" duration="44.00" routeLength="481.73" waitingTime="0.00" waitingCount="0" stopTime="0.00" timeLoss="10.23" rerouteNo="0" devices="tripinfo_heavy_3298" vType="DEFAULT_VEHTYPE" speedFactor="1.04" vaporized=""/>
    <tripinfo id="medium_1063" depart="106.00" departLane="21b_0" departPos="5.10" departSpeed="0.00" departDelay="0.50" arrival="210.00" arrivalLane="28_0" arrivalPos="60.54" arrivalSpeed="12.84" duration="104.00" routeLength="860.64" waitingTime="15.00" waitingCount="1" stopTime="0.00" timeLoss="38.83" rerouteNo="0" devices="tripinfo_medium_1063" vType="DEFAULT_VEHTYPE" speedFactor="1.00" vaporized=""/>
    <tripinfo id="heavy_3151" depart="7.00" departLane="181_0" departPos="5.10" departSpeed="0.00" departDelay="0.60" arrival="211.00" arrivalLane="114_0" arrivalPos="693.70" arrivalSpeed="12.05" duration="204.00" routeLength="1750.57" waitingTime="32.00" waitingCount="4" stopTime="0.00" timeLoss="65.33" rerouteNo="0" devices="tripinfo_heavy_3151" vType="DEFAULT_VEHTYPE" speedFactor="0.93" vaporized=""/>
    <tripinfo id="medium_1059" depart="94.00" departLane="89[0]_0" departPos="5.10" departSpeed="0.00" departDelay="0.00" arrival="211.00" arrivalLane="209_0" arrivalPos="396.59" arrivalSpeed="13.76" duration="117.00" routeLength="1081.12" waitingTime="26.00" waitingCount="1" stopTime="0.00" timeLoss="38.48" rerouteNo="0" devices="tripinfo_medium_1059" vType="DEFAULT_VEHTYPE" speedFactor="1.00" vaporized=""/>
    <tripinfo id="light_8" depart="29.00" departLane="17_0" departPos="5.10" departSpeed="0.00" departDelay="0.00" arrival="212.00" arrivalLane="134b_0" arrivalPos="157.17" arrivalSpeed="14.39" duration="183.00" routeLength="1825.04" waitingTime="22.00" waitingCount="4" stopTime="0.00" timeLoss="59.29" rerouteNo="0" devices="tripinfo_light_8" vType="DEFAULT_VEHTYPE" speedFactor="1.09" vaporized=""/>
    <tripinfo id="heavy_3237" depart="108.00" departLane="38_0" departPos="5.10" departSpeed="0.00" departDelay="0.40" arrival="212.00" arrivalLane="28_0" arrivalPos="60.54" arrivalSpeed="12.63" duration="104.00" routeLength="906.31" waitingTime="8.00" waitingCount="1" stopTime="0.00" timeLoss="30.57" rerouteNo="0" devices="tripinfo_heavy_3237" vType="DEFAULT_VEHTYPE" speedFactor="0.94" vaporized=""/>
    <tripinfo id="light_31" depart="118.00" departLane="210_0" departPos="5.10" departSpeed="0.00" departDelay="0.00" arrival="214.00" arrivalLane="109[1][0]+20003_1" arrivalPos="26.88" arrivalSpeed="12.66" duration="96.00" routeLength="941.13" waitingTime="6.00" waitingCount="1" stopTime="0.00" timeLoss="21.44" rerouteNo="0" devices="tripinfo_light_31" vType="DEFAULT_VEHTYPE" speedFactor="0.94" vaporized=""/>
    <tripinfo id="heavy_3154" depart="12.00" departLane="42_0" departPos="5.10" departSpeed="0.00" departDelay="0.40" arrival="215.00" arrivalLane="113_0" arrivalPos="80.38" arrivalSpeed="14.03" duration="203.00" routeLength="1223.30" waitingTime="95.00" waitingCount="2" stopTime="0.00" timeLoss="113.73" rerouteNo="0" devices="tripinfo_heavy_3154" vType="DEFAULT_VEHTYPE" speedFactor="1.01" vaporized=""/>
    <tripinfo id="light_16" depart="60.00" departLane="224[0]_0" departPos="5.10" departSpeed="0.00" departDelay="0.00" arrival="217.00" arrivalLane="109[0]_0" arrivalPos="24.82" arrivalSpeed="13.10" duration="157.00" routeLength="1315.70" waitingTime="24.00" waitingCount="3" stopTime="0.00" timeLoss="55.77" rerouteNo="0" devices="tripinfo_light_16" vType="DEFAULT_VEHTYPE" speedFactor="0.97" vaporized=""/>
    <tripinfo id="medium_1053" depart="78.00" departLane="189[0]_0" departPos="5.07" departSpeed="0.00" departDelay="1.00" arrival="222.00" arrivalLane="134b_0" arrivalPos="157.17" arrivalSpeed="15.05" duration="144.00" routeLength="1217.88" waitingTime="32.00" waitingCount="2" stopTime="0.00" timeLoss="67.76" rerouteNo="0" devices="tripinfo_medium_1053" vType="DEFAULT_VEHTYPE" speedFactor="1.15" vaporized=""/>
    <tripinfo id="heavy_3191" depart="51.00" departLane="195_0" departPos="5.10" departSpeed="0.00" departDelay="0.20" arrival="223.00" arrivalLane="4c_0" arrivalPos="159.25" arrivalSpeed="13.69" duration="172.00" routeLength="1482.99" waitingTime="22.00" waitingCount="2" stopTime="0.00" timeLoss="61.84" rerouteNo="0" devices="tripinfo_heavy_3191" vType="DEFAULT_VEHTYPE" speedFactor="1.00" vaporized=""/>
    <tripinfo id="heavy_3256" depart="128.00" departLane="220b_0" departPos="5.10" departSpeed="0.00" departDelay="0.80" arrival="223.00" arrivalLane="77[1][1]_0" arrivalPos="464.98" arrivalSpeed="11.40" duration="95.00" routeLength="961.66" waitingTime="0.00" waitingCount="0" stopTime="0.00" timeLoss="13.47" rerouteNo="0" devices="tripinfo_heavy_3256" vType="DEFAULT_VEHTYPE" speedFactor="0.87" vaporized=""/>
    <tripinfo id="light_7" depart="26.00" departLane="159_0" departPos="5.10" departSpeed="0.00" departDelay="0.00" arrival="224.00" arrivalLane="134b_0" arrivalPos="157.17" arrivalSpeed="15.52" duration="198.00" routeLength="1592.03" waitingTime="72.00" waitingCount="2" stopTime="0.00" timeLoss="99.65" rerouteNo="0" devices="tripinfo_light_7" vType="DEFAULT_VEHTYPE" speedFactor="1.18" vaporized=""/>
    <tripinfo id="medium_1023" depart="12.00" departLane="25_0" departPos="5.10" departSpeed="0.00" departDelay="0.50" arrival="226.00" arrivalLane="114_0" arrivalPos="693.70" arrivalSpeed="13.42" duration="214.00" routeLength="2313.20" waitingTime="12.00" waitingCount="2" stopTime="0.00" timeLoss="48.19" rerouteNo="0" devices="tripinfo_medium_1023" vType="DEFAULT_VEHTYPE" speedFactor="1.02" vaporized=""/>