<?xml version="1.0" encoding="UTF-8"?>

<!-- generated on 2025-04-22 19:58:38 by Eclipse SUMO GUI Version 1.22.0
<sumoConfiguration xmlns:xsi="http://www.w3.org/2001/XMLSchema-instance" xsi:noNamespaceSchemaLocation="http://sumo.dlr.de/xsd/sumoConfiguration.xsd">

    <input>
        <net-file value="c:\Users\JunKit\Desktop\Designing-Intelligent-Agents\src\pasubio 3.0\pasubio_buslanes.net.xml"/>
        <route-files value="c:\Users\JunKit\Desktop\Designing-Intelligent-Agents\src\pasubio 3.0\pasubio.rou.xml"/>
        <additional-files value="c:\Users\JunKit\Desktop\Designing-Intelligent-Agents\src\pasubio 3.0\pasubio_vtypes.add.xml,c:\Users\JunKit\Desktop\Designing-Intelligent-Agents\src\pasubio 3.0\pasubio_bus_stops.add.xml,c:\Users\JunKit\Desktop\Designing-Intelligent-Agents\src\pasubio 3.0\pasubio_busses.rou.xml,c:\Users\JunKit\Desktop\Designing-Intelligent-Agents\src\pasubio 3.0\pasubio_detectors.add.xml,c:\Users\JunKit\Desktop\Designing-Intelligent-Agents\src\pasubio 3.0\pasubio_tls.add.xml"/>
    </input>

    <output>
        <tripinfo-output value="c:\Users\JunKit\Desktop\Designing-Intelligent-Agents\src\pasubio 3.0\tripinfos.xml"/>
    </output>

    <processing>
        <time-to-teleport value="300"/>
        <waiting-time-memory value="3600"/>
        <max-depart-delay value="100000"/>
    </processing>

    <report>
        <no-warnings value="true"/>
        <log value="../output/sumo.log"/>
        <message-log value="../output/sumo_messages.log"/>
        <error-log value="../output/sumo_errors.log"/>
        <no-step-log value="true"/>
    </report>

    <traci_server>
        <remote-port value="59527"/>
    </traci_server>

</sumoConfiguration>
-->

<tripinfos xmlns:xsi="http://www.w3.org/2001/XMLSchema-instance" xsi:noNamespaceSchemaLocation="http://sumo.dlr.de/xsd/tripinfo_file.xsd">
    <tripinfo id="Prati_Capraia_10_0" depart="0.00" departLane="3[0]_0" departPos="0.00" departSpeed="0.00" departDelay="0.00" arrival="42.00" arrivalLane="10_0" arrivalPos="223.30" arrivalSpeed="11.64" duration="42.00" routeLength="409.63" waitingTime="0.00" waitingCount="0" stopTime="0.00" timeLoss="9.08" rerouteNo="0" devices="tripinfo_Prati_Capraia_10_0" vType="passenger2b" speedFactor="0.94" vaporized=""/>
    <tripinfo id="Prati_Capraia_10_1" depart="4.00" departLane="3[0]_0" departPos="0.00" departSpeed="0.00" departDelay="0.00" arrival="48.00" arrivalLane="10_0" arrivalPos="223.30" arrivalSpeed="10.49" duration="44.00" routeLength="409.63" waitingTime="0.00" waitingCount="0" stopTime="0.00" timeLoss="5.90" rerouteNo="0" devices="tripinfo_Prati_Capraia_10_1" vType="passenger5" speedFactor="0.80" vaporized=""/>
    <tripinfo id="Gandhi_80_11" depart="17.00" departLane="1[0]_0" departPos="0.00" departSpeed="0.00" departDelay="0.00" arrival="62.00" arrivalLane="21_0" arrivalPos="89.26" arrivalSpeed="13.03" duration="45.00" routeLength="512.45" waitingTime="0.00" waitingCount="0" stopTime="0.00" timeLoss="6.28" rerouteNo="0" devices="tripinfo_Gandhi_80_11" vType="passenger1" speedFactor="1.00" vaporized=""/>
    <tripinfo id="Prati_Capraia_100_3" depart="14.00" departLane="3[0]_0" departPos="0.00" departSpeed="0.00" departDelay="0.00" arrival="63.00" arrivalLane="3[1]b_0" arrivalPos="238.77" arrivalSpeed="14.40" duration="49.00" routeLength="624.48" waitingTime="0.00" waitingCount="0" stopTime="0.00" timeLoss="6.07" rerouteNo="0" devices="tripinfo_Prati_Capraia_100_3" vType="passenger2a" speedFactor="1.06" vaporized=""/>
    <tripinfo id="Prati_Capraia_100_2" depart="9.00" departLane="3[0]_1" departPos="0.00" departSpeed="0.00" departDelay="0.00" arrival="66.00" arrivalLane="3[1]b_0" arrivalPos="238.77" arrivalSpeed="14.14" duration="57.00" routeLength="624.48" waitingTime="1.00" waitingCount="1" stopTime="0.00" timeLoss="12.69" rerouteNo="0" devices="tripinfo_Prati_Capraia_100_2" vType="passenger5" speedFactor="1.02" vaporized=""/>
    <tripinfo id="Prati_Capraia_10_7" depart="34.00" departLane="3[0]_0" departPos="0.00" departSpeed="0.00" departDelay="0.00" arrival="69.00" arrivalLane="10_0" arrivalPos="223.30" arrivalSpeed="13.51" duration="35.00" routeLength="409.63" waitingTime="0.00" waitingCount="0" stopTime="0.00" timeLoss="5.39" rerouteNo="0" devices="tripinfo_Prati_Capraia_10_7" vType="passenger3" speedFactor="1.02" vaporized=""/>
    <tripinfo id="Prati_Capraia_100_4" depart="19.00" departLane="3[0]_1" departPos="0.00" departSpeed="0.00" departDelay="0.00" arrival="74.00" arrivalLane="3[1]b_0" arrivalPos="238.77" arrivalSpeed="11.31" duration="55.00" routeLength="624.48" waitingTime="0.00" waitingCount="0" stopTime="0.00" timeLoss="5.15" rerouteNo="0" devices="tripinfo_Prati_Capraia_100_4" vType="passenger2a" speedFactor="0.91" vaporized=""/>
    <tripinfo id="Pertini_20_0" depart="0.00" departLane="63[0]_2" departPos="0.00" departSpeed="0.00" departDelay="0.00" arrival="82.00" arrivalLane="4[1][1][1]_0" arrivalPos="170.54" arrivalSpeed="14.65" duration="82.00" routeLength="882.71" waitingTime="9.00" waitingCount="1" stopTime="0.00" timeLoss="22.47" rerouteNo="0" devices="tripinfo_Pertini_20_0" vType="passenger1" speedFactor="1.08" vaporized=""/>
    <tripinfo id="Pertini_20_1" depart="4.00" departLane="63[0]_1" departPos="0.00" departSpeed="0.00" departDelay="2.00" arrival="82.00" arrivalLane="4[1][1][1]_1" arrivalPos="170.54" arrivalSpeed="13.81" duration="78.00" routeLength="895.82" waitingTime="4.00" waitingCount="1" stopTime="0.00" timeLoss="15.52" rerouteNo="0" devices="tripinfo_Pertini_20_1" vType="passenger1" speedFactor="1.05" vaporized=""/>
    <tripinfo id="Prati_Capraia_100_5" depart="24.00" departLane="3[0]_0" departPos="0.00" departSpeed="0.00" departDelay="0.00" arrival="82.00" arrivalLane="3[1]b_0" arrivalPos="238.77" arrivalSpeed="12.74" duration="58.00" routeLength="624.48" waitingTime="3.00" waitingCount="1" stopTime="0.00" timeLoss="11.71" rerouteNo="0" devices="tripinfo_Prati_Capraia_100_5" vType="passenger2b" speedFactor="0.98" vaporized=""/>
    <tripinfo id="Pertini_20_7" depart="15.00" departLane="63[0]_2" departPos="0.00" departSpeed="0.00" departDelay="0.00" arrival="83.00" arrivalLane="4[1][1][1]_1" arrivalPos="170.54" arrivalSpeed="15.06" duration="68.00" routeLength="882.71" waitingTime="0.00" waitingCount="0" stopTime="0.00" timeLoss="9.70" rerouteNo="0" devices="tripinfo_Pertini_20_7" vType="passenger1" speedFactor="1.10" vaporized=""/>
    <tripinfo id="Pertini_20_2" depart="4.00" departLane="63[0]_2" departPos="0.00" departSpeed="0.00" departDelay="0.00" arrival="85.00" arrivalLane="4[1][1][1]_0" arrivalPos="170.54" arrivalSpeed="12.82" duration="81.00" routeLength="882.71" waitingTime="6.00" waitingCount="1" stopTime="0.00" timeLoss="17.78" rerouteNo="0" devices="tripinfo_Pertini_20_2" vType="passenger2b" speedFactor="1.02" vaporized=""/>
    <tripinfo id="Montefiorino_90_1" depart="4.00" departLane="43_0" departPos="0.00" departSpeed="0.00" departDelay="0.00" arrival="92.00" arrivalLane="2[1][1][1]b_0" arrivalPos="324.74" arrivalSpeed="15.13" duration="88.00" routeLength="1204.75" waitingTime="0.00" waitingCount="0" stopTime="0.00" timeLoss="8.13" rerouteNo="0" devices="tripinfo_Montefiorino_90_1" vType="passenger1" speedFactor="1.10" vaporized=""/>
    <tripinfo id="Prati_Capraia_100_9" depart="43.00" departLane="3[0]_0" departPos="0.00" departSpeed="0.00" departDelay="0.00" arrival="96.00" arrivalLane="3[1]b_0" arrivalPos="238.77" arrivalSpeed="15.59" duration="53.00" routeLength="624.48" waitingTime="3.00" waitingCount="1" stopTime="0.00" timeLoss="15.27" rerouteNo="0" devices="tripinfo_Prati_Capraia_100_9" vType="passenger2a" speedFactor="1.21" vaporized=""/>
    <tripinfo id="Prati_Capraia_100_8" depart="38.00" departLane="3[0]_1" departPos="0.00" departSpeed="0.00" departDelay="0.00" arrival="99.00" arrivalLane="3[1]b_0" arrivalPos="238.77" arrivalSpeed="15.16" duration="61.00" routeLength="624.48" waitingTime="8.00" waitingCount="1" stopTime="0.00" timeLoss="20.15" rerouteNo="0" devices="tripinfo_Prati_Capraia_100_8" vType="passenger2a" speedFactor="1.12" vaporized=""/>
    <tripinfo id="Pertini_20_10" depart="21.00" departLane="63[0]_2" departPos="0.00" departSpeed="0.00" departDelay="0.00" arrival="101.00" arrivalLane="4[1][1][1]_1" arrivalPos="170.54" arrivalSpeed="14.34" duration="80.00" routeLength="882.71" waitingTime="9.00" waitingCount="1" stopTime="0.00" timeLoss="23.04" rerouteNo="0" devices="tripinfo_Pertini_20_10" vType="passenger1" speedFactor="1.12" vaporized=""/>
    <tripinfo id="Pertini_20_11" depart="23.00" departLane="63[0]_1" departPos="0.00" departSpeed="0.00" departDelay="0.00" arrival="102.00" arrivalLane="4[1][1][1]_0" arrivalPos="170.54" arrivalSpeed="13.99" duration="79.00" routeLength="882.71" waitingTime="6.00" waitingCount="1" stopTime="0.00" timeLoss="20.08" rerouteNo="0" devices="tripinfo_Pertini_20_11" vType="passenger1" speedFactor="1.09" vaporized=""/>
    <tripinfo id="Montefiorino_80_0" depart="0.00" departLane="43_1" departPos="0.00" departSpeed="0.00" departDelay="0.00" arrival="103.00" arrivalLane="21_1" arrivalPos="89.26" arrivalSpeed="14.42" duration="103.00" routeLength="960.77" waitingTime="22.00" waitingCount="1" stopTime="0.00" timeLoss="36.06" rerouteNo="0" devices="tripinfo_Montefiorino_80_0" vType="passenger2a" speedFactor="1.05" vaporized=""/>
    <tripinfo id="Pertini_20_9" depart="19.00" departLane="63[0]_1" departPos="0.00" departSpeed="0.00" departDelay="0.00" arrival="105.00" arrivalLane="4[1][1][1]_1" arrivalPos="170.54" arrivalSpeed="13.13" duration="86.00" routeLength="895.82" waitingTime="5.00" waitingCount="1" stopTime="0.00" timeLoss="18.45" rerouteNo="0" devices="tripinfo_Pertini_20_9" vType="passenger1" speedFactor="0.96" vaporized=""/>
    <tripinfo id="Montefiorino_90_2" depart="8.00" departLane="43_1" departPos="0.00" departSpeed="0.00" departDelay="0.00" arrival="106.00" arrivalLane="2[1][1][1]b_0" arrivalPos="324.74" arrivalSpeed="12.90" duration="98.00" routeLength="1204.75" waitingTime="0.00" waitingCount="0" stopTime="0.00" timeLoss="6.77" rerouteNo="0" devices="tripinfo_Montefiorino_90_2" vType="passenger1" speedFactor="0.96" vaporized=""/>
    <tripinfo id="Prati_Capraia_100_11" depart="53.00" departLane="3[0]_0" departPos="0.00" departSpeed="0.00" departDelay="0.00" arrival="107.00" arrivalLane="3[1]b_0" arrivalPos="238.77" arrivalSpeed="12.75" duration="54.00" routeLength="624.48" waitingTime="0.00" waitingCount="0" stopTime="0.00" timeLoss="4.64" rerouteNo="0" devices="tripinfo_Prati_Capraia_100_11" vType="passenger1" speedFactor="0.92" vaporized=""/>
    <tripinfo id="Prati_Capraia_100_10" depart="48.00" departLane="3[0]_1" departPos="0.00" departSpeed="0.00" departDelay="0.00" arrival="108.00" arrivalLane="3[1]b_0" arrivalPos="238.77" arrivalSpeed="11.25" duration="60.00" routeLength="624.48" waitingTime="0.00" waitingCount="0" stopTime="0.00" timeLoss="8.40" rerouteNo="0" devices="tripinfo_Prati_Capraia_100_10" vType="passenger1" speedFactor="0.88" vaporized=""/>
    <tripinfo id="Borgo_100_0" depart="0.00" departLane="6_0" departPos="0.00" departSpeed="0.00" departDelay="0.00" arrival="111.00" arrivalLane="3[1]b_0" arrivalPos="238.77" arrivalSpeed="12.36" duration="111.00" routeLength="797.07" waitingTime="34.00" waitingCount="2" stopTime="0.00" timeLoss="51.01" rerouteNo="0" devices="tripinfo_Borgo_100_0" vType="passenger4" speedFactor="0.98" vaporized=""/>
    <tripinfo id="Borgo_100_2" depart="12.00" departLane="6_0" departPos="0.00" departSpeed="0.00" departDelay="0.00" arrival="111.00" arrivalLane="3[1]b_1" arrivalPos="238.77" arrivalSpeed="14.78" duration="99.00" routeLength="797.07" waitingTime="26.00" waitingCount="2" stopTime="0.00" timeLoss="44.02" rerouteNo="0" devices="tripinfo_Borgo_100_2" vType="passenger2a" speedFactor="1.07" vaporized=""/>
    <tripinfo id="Borgo_20_3" depart="18.00" departLane="6_1" departPos="0.00" departSpeed="0.00" departDelay="0.00" arrival="112.00" arrivalLane="4[1][1][1]_1" arrivalPos="170.54" arrivalSpeed="13.66" duration="94.00" routeLength="551.60" waitingTime="32.00" waitingCount="3" stopTime="0.00" timeLoss="53.48" rerouteNo="0" devices="tripinfo_Borgo_20_3" vType="passenger1" speedFactor="1.00" vaporized=""/>
    <tripinfo id="Montefiorino_90_5" depart="20.00" departLane="43_1" departPos="0.00" departSpeed="0.00" departDelay="0.00" arrival="113.00" arrivalLane="2[1][1][1]b_0" arrivalPos="324.74" arrivalSpeed="13.85" duration="93.00" routeLength="1198.14" waitingTime="0.00" waitingCount="0" stopTime="0.00" timeLoss="7.77" rerouteNo="0" devices="tripinfo_Montefiorino_90_5" vType="passenger1" speedFactor="1.02" vaporized=""/>
    <tripinfo id="Borgo_20_4" depart="24.00" departLane="6_1" departPos="0.00" departSpeed="0.00" departDelay="0.00" arrival="116.00" arrivalLane="4[1][1][1]_1" arrivalPos="170.54" arrivalSpeed="11.59" duration="92.00" routeLength="551.60" waitingTime="25.00" waitingCount="3" stopTime="0.00" timeLoss="46.47" rerouteNo="0" devices="tripinfo_Borgo_20_4" vType="passenger2b" speedFactor="0.90" vaporized=""/>
    <tripinfo id="Montefiorino_60_7" depart="28.00" departLane="43_0" departPos="0.00" departSpeed="0.00" departDelay="0.00" arrival="117.00" arrivalLane="40[1]_0" arrivalPos="496.68" arrivalSpeed="12.20" duration="89.00" routeLength="1021.91" waitingTime="0.00" waitingCount="0" stopTime="0.00" timeLoss="7.18" rerouteNo="0" devices="tripinfo_Montefiorino_60_7" vType="passenger1" speedFactor="0.91" vaporized=""/>
    <tripinfo id="Gandhi_80_45" depart="70.00" departLane="1[0]_0" departPos="0.00" departSpeed="0.00" departDelay="0.00" arrival="118.00" arrivalLane="21_0" arrivalPos="89.26" arrivalSpeed="12.36" duration="48.00" routeLength="512.45" waitingTime="0.00" waitingCount="0" stopTime="0.00" timeLoss="6.11" rerouteNo="0" devices="tripinfo_Gandhi_80_45" vType="passenger2a" speedFactor="0.92" vaporized=""/>
    <tripinfo id="Montefiorino_90_6" depart="24.00" departLane="43_0" departPos="0.00" departSpeed="0.00" departDelay="0.00" arrival="119.00" arrivalLane="2[1][1][1]b_0" arrivalPos="324.74" arrivalSpeed="14.18" duration="95.00" routeLength="1204.75" waitingTime="0.00" waitingCount="0" stopTime="0.00" timeLoss="13.88" rerouteNo="0" devices="tripinfo_Montefiorino_90_6" vType="passenger2a" speedFactor="1.08" vaporized=""/>
    <tripinfo id="Borgo_20_6" depart="36.00" departLane="6_1" departPos="0.00" departSpeed="0.00" departDelay="0.00" arrival="121.00" arrivalLane="4[1][1][1]_1" arrivalPos="170.54" arrivalSpeed="16.15" duration="85.00" routeLength="551.60" waitingTime="26.00" waitingCount="3" stopTime="0.00" timeLoss="50.11" rerouteNo="0" devices="tripinfo_Borgo_20_6" vType="passenger4" speedFactor="1.18" vaporized=""/>
    <tripinfo id="Prati_Capraia_100_13" depart="63.00" departLane="3[0]_0" departPos="0.00" departSpeed="0.00" departDelay="0.00" arrival="121.00" arrivalLane="3[1]b_1" arrivalPos="238.77" arrivalSpeed="13.86" duration="58.00" routeLength="624.48" waitingTime="3.00" waitingCount="1" stopTime="0.00" timeLoss="14.37" rerouteNo="0" devices="tripinfo_Prati_Capraia_100_13" vType="passenger2b" speedFactor="1.03" vaporized=""/>
    <tripinfo id="Prati_Capraia_100_12" depart="58.00" departLane="3[0]_1" departPos="0.00" departSpeed="0.00" departDelay="0.00" arrival="123.00" arrivalLane="3[1]b_0" arrivalPos="238.77" arrivalSpeed="12.16" duration="65.00" routeLength="624.48" waitingTime="8.00" waitingCount="1" stopTime="0.00" timeLoss="17.96" rerouteNo="0" devices="tripinfo_Prati_Capraia_100_12" vType="passenger3" speedFactor="0.97" vaporized=""/>
    <tripinfo id="Borgo_20_7" depart="42.00" departLane="6_1" departPos="0.00" departSpeed="0.00" departDelay="0.00" arrival="124.00" arrivalLane="4[1][1][1]_1" arrivalPos="170.54" arrivalSpeed="13.07" duration="82.00" routeLength="551.60" waitingTime="21.00" waitingCount="3" stopTime="0.00" timeLoss="42.06" rerouteNo="0" devices="tripinfo_Borgo_20_7" vType="passenger1" speedFactor="1.01" vaporized=""/>
    <tripinfo id="Prati_Capraia_100_14" depart="68.00" departLane="3[0]_1" departPos="0.00" departSpeed="0.00" departDelay="0.00" arrival="124.00" arrivalLane="3[1]b_1" arrivalPos="238.77" arrivalSpeed="12.79" duration="56.00" routeLength="624.48" waitingTime="0.00" waitingCount="0" stopTime="0.00" timeLoss="10.64" rerouteNo="0" devices="tripinfo_Prati_Capraia_100_14" vType="passenger4" speedFactor="1.00" vaporized=""/>
    <tripinfo id="Borgo_100_8" depart="48.00" departLane="6_0" departPos="0.00" departSpeed="0.00" departDelay="0.00" arrival="130.00" arrivalLane="3[1]b_0" arrivalPos="238.77" arrivalSpeed="13.92" duration="82.00" routeLength="797.07" waitingTime="13.00" waitingCount="1" stopTime="0.00" timeLoss="24.39" rerouteNo="0" devices="tripinfo_Borgo_100_8" vType="passenger4" speedFactor="1.01" vaporized=""/>
    <tripinfo id="Pertini_20_12" depart="25.00" departLane="63[0]_2" departPos="0.00" departSpeed="0.00" departDelay="0.00" arrival="132.00" arrivalLane="4[1][1][1]_1" arrivalPos="170.54" arrivalSpeed="13.51" duration="107.00" routeLength="895.82" waitingTime="25.00" waitingCount="2" stopTime="0.00" timeLoss="42.71" rerouteNo="0" devices="tripinfo_Pertini_20_12" vType="passenger1" speedFactor="1.01" vaporized=""/>
    <tripinfo id="Pertini_20_15" depart="32.00" departLane="63[0]_2" departPos="0.00" departSpeed="0.00" departDelay="0.00" arrival="132.00" arrivalLane="4[1][1][1]_0" arrivalPos="170.54" arrivalSpeed="14.26" duration="100.00" routeLength="895.82" waitingTime="20.00" waitingCount="1" stopTime="0.00" timeLoss="36.95" rerouteNo="0" devices="tripinfo_Pertini_20_15" vType="passenger1" speedFactor="1.03" vaporized=""/>
    <tripinfo id="Pertini_20_14" depart="30.00" departLane="63[0]_1" departPos="0.00" departSpeed="0.00" departDelay="0.00" arrival="134.00" arrivalLane="4[1][1][1]_1" arrivalPos="170.54" arrivalSpeed="14.73" duration="104.00" routeLength="895.82" waitingTime="24.00" waitingCount="2" stopTime="0.00" timeLoss="42.79" rerouteNo="0" devices="tripinfo_Pertini_20_14" vType="passenger1" speedFactor="1.06" vaporized=""/>
    <tripinfo id="Pertini_20_17" depart="36.00" departLane="63[0]_2" departPos="0.00" departSpeed="0.00" departDelay="0.00" arrival="135.00" arrivalLane="4[1][1][1]_0" arrivalPos="170.54" arrivalSpeed="12.62" duration="99.00" routeLength="882.71" waitingTime="20.00" waitingCount="1" stopTime="0.00" timeLoss="34.06" rerouteNo="0" devices="tripinfo_Pertini_20_17" vType="passenger1" speedFactor="0.99" vaporized=""/>
    <tripinfo id="Borgo_100_11" depart="66.00" departLane="6_0" departPos="0.00" departSpeed="0.00" departDelay="0.00" arrival="136.00" arrivalLane="3[1]b_0" arrivalPos="238.77" arrivalSpeed="15.83" duration="70.00" routeLength="797.07" waitingTime="3.00" waitingCount="2" stopTime="0.00" timeLoss="20.14" rerouteNo="0" devices="tripinfo_Borgo_100_11" vType="passenger1" speedFactor="1.17" vaporized=""/>
    <tripinfo id="Montefiorino_90_13" depart="53.00" departLane="43_1" departPos="0.00" departSpeed="0.00" departDelay="0.00" arrival="138.00" arrivalLane="2[1][1][1]b_1" arrivalPos="324.74" arrivalSpeed="15.01" duration="85.00" routeLength="1198.14" waitingTime="0.00" waitingCount="0" stopTime="0.00" timeLoss="7.95" rerouteNo="0" devices="tripinfo_Montefiorino_90_13" vType="passenger2b" speedFactor="1.14" vaporized=""/>
    <tripinfo id="Pertini_20_16" depart="34.00" departLane="63[0]_1" departPos="0.00" departSpeed="0.00" departDelay="0.00" arrival="139.00" arrivalLane="4[1][1][1]_0" arrivalPos="170.54" arrivalSpeed="11.39" duration="105.00" routeLength="895.82" waitingTime="16.00" waitingCount="1" stopTime="0.00" timeLoss="29.74" rerouteNo="0" devices="tripinfo_Pertini_20_16" vType="passenger2a" speedFactor="0.87" vaporized=""/>
    <tripinfo id="Prati_Capraia_10_19" depart="92.00" departLane="3[0]_0" departPos="0.00" departSpeed="0.00" departDelay="0.00" arrival="139.00" arrivalLane="10_0" arrivalPos="223.30" arrivalSpeed="13.79" duration="47.00" routeLength="409.63" waitingTime="8.00" waitingCount="1" stopTime="0.00" timeLoss="17.59" rerouteNo="0" devices="tripinfo_Prati_Capraia_10_19" vType="passenger3" speedFactor="1.05" vaporized=""/>
    <tripinfo id="Pertini_20_21" depart="45.00" departLane="63[0]_1" departPos="0.00" departSpeed="0.00" departDelay="0.00" arrival="140.00" arrivalLane="4[1][1][1]_0" arrivalPos="170.54" arrivalSpeed="12.03" duration="95.00" routeLength="882.71" waitingTime="14.00" waitingCount="1" stopTime="0.00" timeLoss="33.68" rerouteNo="0" devices="tripinfo_Pertini_20_21" vType="passenger4" speedFactor="1.04" vaporized=""/>
    <tripinfo id="Prati_Capraia_10_21" depart="102.00" departLane="3[0]_0" departPos="0.00" departSpeed="0.00" departDelay="0.00" arrival="140.00" arrivalLane="10_0" arrivalPos="223.30" arrivalSpeed="14.06" duration="38.00" routeLength="409.63" waitingTime="0.00" waitingCount="0" stopTime="0.00" timeLoss="9.89" rerouteNo="0" devices="tripinfo_Prati_Capraia_10_21" vType="passenger2b" speedFactor="1.08" vaporized=""/>
    <tripinfo id="Borgo_100_12" depart="72.00" departLane="6_0" departPos="0.00" departSpeed="0.00" departDelay="0.00" arrival="141.00" arrivalLane="3[1]b_0" arrivalPos="238.77" arrivalSpeed="14.40" duration="69.00" routeLength="797.07" waitingTime="0.00" waitingCount="0" stopTime="0.00" timeLoss="12.98" rerouteNo="0" devices="tripinfo_Borgo_100_12" vType="passenger5" speedFactor="1.04" vaporized=""/>
    <tripinfo id="Pertini_20_22" depart="47.00" departLane="63[0]_2" departPos="0.00" departSpeed="0.00" departDelay="0.00" arrival="142.00" arrivalLane="4[1][1][1]_1" arrivalPos="170.54" arrivalSpeed="16.18" duration="95.00" routeLength="882.71" waitingTime="20.00" waitingCount="1" stopTime="0.00" timeLoss="40.74" rerouteNo="0" devices="tripinfo_Pertini_20_22" vType="passenger1" speedFactor="1.18" vaporized=""/>
    <tripinfo id="Pertini_20_19" depart="40.00" departLane="63[0]_2" departPos="0.00" departSpeed="0.00" departDelay="0.00" arrival="143.00" arrivalLane="4[1][1][1]_0" arrivalPos="170.54" arrivalSpeed="11.01" duration="103.00" routeLength="895.82" waitingTime="12.00" waitingCount="1" stopTime="0.00" timeLoss="25.09" rerouteNo="0" devices="tripinfo_Pertini_20_19" vType="passenger3" speedFactor="0.84" vaporized=""/>
    <tripinfo id="Montefiorino_90_11" depart="45.00" departLane="43_1" departPos="0.00" departSpeed="0.00" departDelay="0.00" arrival="144.00" arrivalLane="2[1][1][1]b_0" arrivalPos="324.74" arrivalSpeed="13.29" duration="99.00" routeLength="1204.75" waitingTime="0.00" waitingCount="0" stopTime="0.00" timeLoss="7.52" rerouteNo="0" devices="tripinfo_Montefiorino_90_11" vType="passenger2b" speedFactor="0.97" vaporized=""/>
    <tripinfo id="Pertini_10_20" depart="43.00" departLane="63[0]_2" departPos="0.00" departSpeed="0.00" departDelay="0.00" arrival="145.00" arrivalLane="10_0" arrivalPos="223.30" arrivalSpeed="15.31" duration="102.00" routeLength="935.05" waitingTime="22.00" waitingCount="2" stopTime="0.00" timeLoss="41.37" rerouteNo="0" devices="tripinfo_Pertini_10_20" vType="passenger3" speedFactor="1.13" vaporized=""/>
    <tripinfo id="Montefiorino_90_15" depart="62.00" departLane="43_1" departPos="0.00" departSpeed="0.00" departDelay="0.00" arrival="145.00" arrivalLane="2[1][1][1]b_1" arrivalPos="324.74" arrivalSpeed="15.63" duration="83.00" routeLength="1198.14" waitingTime="0.00" waitingCount="0" stopTime="0.00" timeLoss="7.67" rerouteNo="0" devices="tripinfo_Montefiorino_90_15" vType="passenger1" speedFactor="1.16" vaporized=""/>
    <tripinfo id="Prati_Capraia_100_17" depart="82.00" departLane="3[0]_1" departPos="0.00" departSpeed="0.00" departDelay="0.00" arrival="153.00" arrivalLane="3[1]b_1" arrivalPos="238.77" arrivalSpeed="12.58" duration="71.00" routeLength="624.48" waitingTime="11.00" waitingCount="1" stopTime="0.00" timeLoss="23.18" rerouteNo="0" devices="tripinfo_Prati_Capraia_100_17" vType="passenger1" speedFactor="0.94" vaporized=""/>
    <tripinfo id="Montefiorino_100_3" depart="12.00" departLane="43_0" departPos="0.00" departSpeed="0.00" departDelay="0.00" arrival="154.00" arrivalLane="15_0" arrivalPos="315.83" arrivalSpeed="10.27" duration="142.00" routeLength="1342.76" waitingTime="0.00" waitingCount="0" stopTime="0.00" timeLoss="13.50" rerouteNo="0" devices="tripinfo_Montefiorino_100_3" vType="passenger3" speedFactor="0.77" vaporized=""/>
    <tripinfo id="Prati_Capraia_100_16" depart="77.00" departLane="3[0]_0" departPos="0.00" departSpeed="0.00" departDelay="0.00" arrival="154.00" arrivalLane="3[1]b_0" arrivalPos="238.77" arrivalSpeed="12.02" duration="77.00" routeLength="624.48" waitingTime="18.00" waitingCount="1" stopTime="0.00" timeLoss="28.17" rerouteNo="0" devices="tripinfo_Prati_Capraia_100_16" vType="passenger1" speedFactor="0.93" vaporized=""/>
    <tripinfo id="Prati_Capraia_100_18" depart="87.00" departLane="3[0]_0" departPos="0.00" departSpeed="0.00" departDelay="0.00" arrival="155.00" arrivalLane="3[1]b_1" arrivalPos="238.77" arrivalSpeed="15.57" duration="68.00" routeLength="624.48" waitingTime="12.00" waitingCount="1" stopTime="0.00" timeLoss="30.22" rerouteNo="0" devices="tripinfo_Prati_Capraia_100_18" vType="passenger1" speedFactor="1.21" vaporized=""/>
    <tripinfo id="Pertini_20_25" depart="53.00" departLane="63[0]_1" departPos="0.00" departSpeed="0.00" departDelay="0.00" arrival="157.00" arrivalLane="4[1][1][1]_0" arrivalPos="170.54" arrivalSpeed="13.59" duration="104.00" routeLength="895.82" waitingTime="22.00" waitingCount="2" stopTime="0.00" timeLoss="40.26" rerouteNo="0" devices="tripinfo_Pertini_20_25" vType="passenger1" speedFactor="1.01" vaporized=""/>
    <tripinfo id="Prati_Capraia_100_22" depart="107.00" departLane="3[0]_1" departPos="0.00" departSpeed="0.00" departDelay="0.00" arrival="157.00" arrivalLane="3[1]b_1" arrivalPos="238.77" arrivalSpeed="14.01" duration="50.00" routeLength="624.48" waitingTime="0.00" waitingCount="0" stopTime="0.00" timeLoss="6.73" rerouteNo="0" devices="tripinfo_Prati_Capraia_100_22" vType="passenger3" speedFactor="1.05" vaporized=""/>
    <tripinfo id="Pertini_20_18" depart="38.00" departLane="63[0]_1" departPos="0.00" departSpeed="0.00" departDelay="0.00" arrival="158.00" arrivalLane="4[1][1][1]_0" arrivalPos="170.54" arrivalSpeed="12.46" duration="120.00" routeLength="895.82" waitingTime="29.00" waitingCount="2" stopTime="0.00" timeLoss="50.02" rerouteNo="0" devices="tripinfo_Pertini_20_18" vType="passenger3" speedFactor="0.93" vaporized=""/>
    <tripinfo id="Montefiorino_90_14" depart="57.00" departLane="43_0" departPos="0.00" departSpeed="0.00" departDelay="0.00" arrival="159.00" arrivalLane="2[1][1][1]b_0" arrivalPos="324.74" arrivalSpeed="12.60" duration="102.00" routeLength="1204.75" waitingTime="0.00" waitingCount="0" stopTime="0.00" timeLoss="8.51" rerouteNo="0" devices="tripinfo_Montefiorino_90_14" vType="passenger3" speedFactor="0.94" vaporized=""/>
    <tripinfo id="Pertini_20_27" depart="58.00" departLane="63[0]_1" departPos="0.00" departSpeed="0.00" departDelay="0.00" arrival="159.00" arrivalLane="4[1][1][1]_1" arrivalPos="170.54" arrivalSpeed="16.31" duration="101.00" routeLength="895.82" waitingTime="23.00" waitingCount="2" stopTime="0.00" timeLoss="46.14" rerouteNo="0" devices="tripinfo_Pertini_20_27" vType="passenger1" speedFactor="1.18" vaporized=""/>
    <tripinfo id="Sabotino_9_0" depart="0.00" departLane="41_0" departPos="0.00" departSpeed="0.00" departDelay="0.00" arrival="160.00" arrivalLane="2[1][1][1]b_0" arrivalPos="324.74" arrivalSpeed="13.72" duration="160.00" routeLength="1123.23" waitingTime="69.00" waitingCount="1" stopTime="0.00" timeLoss="80.44" rerouteNo="0" devices="tripinfo_Sabotino_9_0" vType="passenger1" speedFactor="1.02" vaporized=""/>
    <tripinfo id="Pertini_20_26" depart="55.00" departLane="63[0]_2" departPos="0.00" departSpeed="0.00" departDelay="0.00" arrival="160.00" arrivalLane="4[1][1][1]_0" arrivalPos="170.54" arrivalSpeed="12.79" duration="105.00" routeLength="895.82" waitingTime="18.00" waitingCount="2" stopTime="0.00" timeLoss="37.82" rerouteNo="0" devices="tripinfo_Pertini_20_26" vType="passenger5" speedFactor="0.97" vaporized=""/>
    <tripinfo id="Sabotino_9_3" depart="27.00" departLane="41_0" departPos="0.00" departSpeed="0.00" departDelay="0.00" arrival="161.00" arrivalLane="2[1][1][1]b_1" arrivalPos="324.74" arrivalSpeed="13.74" duration="134.00" routeLength="1123.23" waitingTime="42.00" waitingCount="1" stopTime="0.00" timeLoss="57.18" rerouteNo="0" devices="tripinfo_Sabotino_9_3" vType="passenger1" speedFactor="1.06" vaporized=""/>
    <tripinfo id="Prati_Capraia_100_20" depart="97.00" departLane="3[0]_1" departPos="0.00" departSpeed="0.00" departDelay="0.00" arrival="161.00" arrivalLane="3[1]b_0" arrivalPos="238.77" arrivalSpeed="11.36" duration="64.00" routeLength="624.48" waitingTime="0.00" waitingCount="0" stopTime="0.00" timeLoss="9.06" rerouteNo="0" devices="tripinfo_Prati_Capraia_100_20" vType="passenger2a" speedFactor="0.83" vaporized=""/>
    <tripinfo id="Prati_Capraia_10_25" depart="121.00" departLane="3[0]_0" departPos="0.00" departSpeed="0.00" departDelay="0.00" arrival="162.00" arrivalLane="10_0" arrivalPos="223.30" arrivalSpeed="13.56" duration="41.00" routeLength="409.63" waitingTime="0.00" waitingCount="0" stopTime="0.00" timeLoss="11.68" rerouteNo="0" devices="tripinfo_Prati_Capraia_10_25" vType="passenger1" speedFactor="1.05" vaporized=""/>
    <tripinfo id="Sabotino_9_2" depart="18.00" departLane="41_0" departPos="0.00" departSpeed="0.00" departDelay="0.00" arrival="163.00" arrivalLane="2[1][1][1]b_1" arrivalPos="324.74" arrivalSpeed="12.98" duration="145.00" routeLength="1123.23" waitingTime="49.00" waitingCount="1" stopTime="0.00" timeLoss="63.43" rerouteNo="0" devices="tripinfo_Sabotino_9_2" vType="passenger5" speedFactor="1.00" vaporized=""/>