<?xml version="1.0" encoding="UTF-8"?>

<!-- generated on 2025-04-16 01:30:00 by Eclipse SUMO sumo Version 1.22.0
<sumoConfiguration xmlns:xsi="http://www.w3.org/2001/XMLSchema-instance" xsi:noNamespaceSchemaLocation="http://sumo.dlr.de/xsd/sumoConfiguration.xsd">

    <input>
        <net-file value="pasubio_buslanes.net.xml"/>
        <route-files value="route_mixed_episode_6.rou.xml"/>
        <additional-files value="pasubio_vtypes.add.xml,pasubio_bus_stops.add.xml,pasubio_busses.rou.xml,pasubio_detectors.add.xml,pasubio_tls.add.xml"/>
    </input>

    <output>
        <tripinfo-output value="tripinfos.xml"/>
    </output>

    <processing>
        <time-to-teleport value="300"/>
        <waiting-time-memory value="3600"/>
        <max-depart-delay value="100000"/>
    </processing>

    <report>
        <no-warnings value="true"/>
        <log value="../output/sumo.log"/>
        <message-log value="../output/sumo_messages.log"/>
        <error-log value="../output/sumo_errors.log"/>
        <no-step-log value="true"/>
    </report>

    <traci_server>
        <remote-port value="49384"/>
    </traci_server>

</sumoConfiguration>
-->

<tripinfos xmlns:xsi="http://www.w3.org/2001/XMLSchema-instance" xsi:noNamespaceSchemaLocation="http://sumo.dlr.de/xsd/tripinfo_file.xsd">
    <tripinfo id="heavy_2879" depart="5.00" departLane="98_0" departPos="5.10" departSpeed="0.00" departDelay="0.80" arrival="52.00" arrivalLane="26_0" arrivalPos="127.46" arrivalSpeed="15.00" duration="47.00" routeLength="544.36" waitingTime="0.00" waitingCount="0" stopTime="0.00" timeLoss="9.24" rerouteNo="0" devices="tripinfo_heavy_2879" vType="DEFAULT_VEHTYPE" speedFactor="1.09" vaporized=""/>
    <tripinfo id="heavy_2875" depart="1.00" departLane="17[0]_0" departPos="5.10" departSpeed="0.00" departDelay="0.60" arrival="66.00" arrivalLane="33_0" arrivalPos="180.06" arrivalSpeed="12.62" duration="65.00" routeLength="706.26" waitingTime="0.00" waitingCount="0" stopTime="0.00" timeLoss="9.08" rerouteNo="0" devices="tripinfo_heavy_2875" vType="DEFAULT_VEHTYPE" speedFactor="0.94" vaporized=""/>
    <tripinfo id="heavy_2878" depart="3.00" departLane="81_0" departPos="5.10" departSpeed="0.00" departDelay="0.60" arrival="85.00" arrivalLane="40[1]_0" arrivalPos="497.68" arrivalSpeed="11.65" duration="82.00" routeLength="782.67" waitingTime="8.00" waitingCount="1" stopTime="0.00" timeLoss="17.53" rerouteNo="0" devices="tripinfo_heavy_2878" vType="DEFAULT_VEHTYPE" speedFactor="0.89" vaporized=""/>
    <tripinfo id="light_13" depart="47.00" departLane="54_0" departPos="5.10" departSpeed="0.00" departDelay="0.00" arrival="91.00" arrivalLane="42_1" arrivalPos="42.93" arrivalSpeed="6.74" duration="44.00" routeLength="396.96" waitingTime="0.00" waitingCount="0" stopTime="0.00" timeLoss="12.07" rerouteNo="0" devices="tripinfo_light_13" vType="DEFAULT_VEHTYPE" speedFactor="0.96" vaporized=""/>
    <tripinfo id="medium_969" depart="33.00" departLane="6_0" departPos="5.10" departSpeed="0.00" departDelay="0.00" arrival="104.00" arrivalLane="4[1][1][1]_1" arrivalPos="171.54" arrivalSpeed="11.78" duration="71.00" routeLength="547.50" waitingTime="12.00" waitingCount="2" stopTime="0.00" timeLoss="26.17" rerouteNo="0" devices="tripinfo_medium_969" vType="DEFAULT_VEHTYPE" speedFactor="0.90" vaporized=""/>
    <tripinfo id="heavy_2921" depart="53.00" departLane="6_0" departPos="5.10" departSpeed="0.00" departDelay="0.20" arrival="109.00" arrivalLane="4[1][1][1]_1" arrivalPos="171.54" arrivalSpeed="13.29" duration="56.00" routeLength="547.50" waitingTime="3.00" waitingCount="1" stopTime="0.00" timeLoss="15.22" rerouteNo="0" devices="tripinfo_heavy_2921" vType="DEFAULT_VEHTYPE" speedFactor="1.00" vaporized=""/>
    <tripinfo id="medium_971" depart="37.00" departLane="17[0]_0" departPos="5.10" departSpeed="0.00" departDelay="0.00" arrival="113.00" arrivalLane="70_0" arrivalPos="60.87" arrivalSpeed="12.20" duration="76.00" routeLength="675.56" waitingTime="8.00" waitingCount="1" stopTime="0.00" timeLoss="20.49" rerouteNo="0" devices="tripinfo_medium_971" vType="DEFAULT_VEHTYPE" speedFactor="0.90" vaporized=""/>
    <tripinfo id="light_8" depart="30.00" departLane="12_0" departPos="5.10" departSpeed="0.00" departDelay="1.00" arrival="121.00" arrivalLane="53a_0" arrivalPos="257.19" arrivalSpeed="11.55" duration="91.00" routeLength="834.40" waitingTime="12.00" waitingCount="1" stopTime="0.00" timeLoss="23.52" rerouteNo="0" devices="tripinfo_light_8" vType="DEFAULT_VEHTYPE" speedFactor="0.90" vaporized=""/>
    <tripinfo id="heavy_2886" depart="15.00" departLane="1[0]_0" departPos="5.10" departSpeed="0.00" departDelay="0.40" arrival="123.00" arrivalLane="25_1" arrivalPos="22.66" arrivalSpeed="10.95" duration="108.00" routeLength="459.78" waitingTime="58.00" waitingCount="1" stopTime="0.00" timeLoss="67.40" rerouteNo="0" devices="tripinfo_heavy_2886" vType="DEFAULT_VEHTYPE" speedFactor="0.83" vaporized=""/>
    <tripinfo id="heavy_2890" depart="20.00" departLane="43_0" departPos="5.10" departSpeed="0.00" departDelay="0.00" arrival="127.00" arrivalLane="40[1]_0" arrivalPos="497.68" arrivalSpeed="15.71" duration="107.00" routeLength="1017.81" waitingTime="21.00" waitingCount="2" stopTime="0.00" timeLoss="41.73" rerouteNo="0" devices="tripinfo_heavy_2890" vType="DEFAULT_VEHTYPE" speedFactor="1.13" vaporized=""/>
    <tripinfo id="heavy_2939" depart="81.00" departLane="1[0]_0" departPos="5.10" departSpeed="0.00" departDelay="0.40" arrival="127.00" arrivalLane="21_0" arrivalPos="90.26" arrivalSpeed="15.74" duration="46.00" routeLength="508.35" waitingTime="4.00" waitingCount="1" stopTime="0.00" timeLoss="13.63" rerouteNo="0" devices="tripinfo_heavy_2939" vType="DEFAULT_VEHTYPE" speedFactor="1.18" vaporized=""/>
    <tripinfo id="medium_990" depart="79.00" departLane="54_0" departPos="5.10" departSpeed="0.00" departDelay="0.00" arrival="134.00" arrivalLane="44_1" arrivalPos="123.23" arrivalSpeed="14.42" duration="55.00" routeLength="552.96" waitingTime="3.00" waitingCount="1" stopTime="0.00" timeLoss="16.98" rerouteNo="0" devices="tripinfo_medium_990" vType="DEFAULT_VEHTYPE" speedFactor="1.10" vaporized=""/>
    <tripinfo id="medium_959" depart="4.00" departLane="63[0]_0" departPos="5.10" departSpeed="0.00" departDelay="3.00" arrival="141.00" arrivalLane="4[1][1][1]_0" arrivalPos="171.54" arrivalSpeed="14.96" duration="137.00" routeLength="878.61" waitingTime="65.00" waitingCount="1" stopTime="0.00" timeLoss="78.49" rerouteNo="0" devices="tripinfo_medium_959" vType="DEFAULT_VEHTYPE" speedFactor="1.08" vaporized=""/>
    <tripinfo id="heavy_2906" depart="38.00" departLane="63[0]_0" departPos="5.10" departSpeed="0.00" departDelay="1.40" arrival="142.00" arrivalLane="4[1][1][1]_0" arrivalPos="171.54" arrivalSpeed="13.50" duration="104.00" routeLength="891.72" waitingTime="29.00" waitingCount="1" stopTime="0.00" timeLoss="39.95" rerouteNo="0" devices="tripinfo_heavy_2906" vType="DEFAULT_VEHTYPE" speedFactor="1.00" vaporized=""/>
    <tripinfo id="medium_989" depart="79.00" departLane="3[0]_0" departPos="5.10" departSpeed="0.00" departDelay="0.00" arrival="144.00" arrivalLane="3[1]_0" arrivalPos="172.58" arrivalSpeed="11.70" duration="65.00" routeLength="367.84" waitingTime="25.00" waitingCount="1" stopTime="0.00" timeLoss="34.10" rerouteNo="0" devices="tripinfo_medium_989" vType="DEFAULT_VEHTYPE" speedFactor="0.87" vaporized=""/>
    <tripinfo id="heavy_2917" depart="49.00" departLane="17[1]_0" departPos="5.10" departSpeed="0.00" departDelay="0.20" arrival="151.00" arrivalLane="3[1]b_0" arrivalPos="239.77" arrivalSpeed="12.85" duration="102.00" routeLength="991.77" waitingTime="16.00" waitingCount="1" stopTime="0.00" timeLoss="28.00" rerouteNo="0" devices="tripinfo_heavy_2917" vType="DEFAULT_VEHTYPE" speedFactor="0.98" vaporized=""/>
    <tripinfo id="heavy_2953" depart="103.00" departLane="6_0" departPos="5.10" departSpeed="0.00" departDelay="0.40" arrival="155.00" arrivalLane="4[1][1][1]_1" arrivalPos="171.54" arrivalSpeed="16.01" duration="52.00" routeLength="547.50" waitingTime="5.00" waitingCount="1" stopTime="0.00" timeLoss="16.93" rerouteNo="0" devices="tripinfo_heavy_2953" vType="DEFAULT_VEHTYPE" speedFactor="1.16" vaporized=""/>
    <tripinfo id="heavy_2964" depart="116.00" departLane="54_0" departPos="5.10" departSpeed="0.00" departDelay="1.00" arrival="171.00" arrivalLane="40[1]_0" arrivalPos="497.68" arrivalSpeed="14.51" duration="55.00" routeLength="694.82" waitingTime="0.00" waitingCount="0" stopTime="0.00" timeLoss="9.12" rerouteNo="0" devices="tripinfo_heavy_2964" vType="DEFAULT_VEHTYPE" speedFactor="1.13" vaporized=""/>
    <tripinfo id="light_6" depart="24.00" departLane="45_0" departPos="5.10" departSpeed="0.00" departDelay="0.00" arrival="177.00" arrivalLane="53a_0" arrivalPos="257.19" arrivalSpeed="15.77" duration="153.00" routeLength="1610.04" waitingTime="26.00" waitingCount="2" stopTime="0.00" timeLoss="51.54" rerouteNo="0" devices="tripinfo_light_6" vType="DEFAULT_VEHTYPE" speedFactor="1.17" vaporized=""/>
    <tripinfo id="heavy_2965" depart="116.00" departLane="50[1]a_0" departPos="5.10" departSpeed="0.00" departDelay="0.20" arrival="194.00" arrivalLane="44_1" arrivalPos="123.23" arrivalSpeed="12.43" duration="78.00" routeLength="671.58" waitingTime="9.00" waitingCount="2" stopTime="0.00" timeLoss="24.28" rerouteNo="0" devices="tripinfo_heavy_2965" vType="DEFAULT_VEHTYPE" speedFactor="0.91" vaporized=""/>
    <tripinfo id="heavy_2883" depart="11.00" departLane="63[1]_0" departPos="5.10" departSpeed="0.00" departDelay="0.60" arrival="195.00" arrivalLane="64_0" arrivalPos="60.79" arrivalSpeed="12.68" duration="184.00" routeLength="1183.24" waitingTime="62.00" waitingCount="2" stopTime="0.00" timeLoss="89.61" rerouteNo="0" devices="tripinfo_heavy_2883" vType="DEFAULT_VEHTYPE" speedFactor="0.94" vaporized=""/>
    <tripinfo id="heavy_2999" depart="156.00" departLane="11[0]_0" departPos="5.10" departSpeed="0.00" departDelay="0.80" arrival="199.00" arrivalLane="101_1" arrivalPos="93.10" arrivalSpeed="13.11" duration="43.00" routeLength="268.49" waitingTime="12.00" waitingCount="1" stopTime="0.00" timeLoss="22.79" rerouteNo="0" devices="tripinfo_heavy_2999" vType="DEFAULT_VEHTYPE" speedFactor="1.00" vaporized=""/>
    <tripinfo id="light_2" depart="7.00" departLane="52_0" departPos="5.10" departSpeed="0.00" departDelay="1.00" arrival="203.00" arrivalLane="38[1][1]a_0" arrivalPos="91.98" arrivalSpeed="4.40" duration="196.00" routeLength="764.59" waitingTime="121.00" waitingCount="2" stopTime="0.00" timeLoss="142.49" rerouteNo="0" devices="tripinfo_light_2" vType="DEFAULT_VEHTYPE" speedFactor="1.05" vaporized=""/>
    <tripinfo id="heavy_2905" depart="38.00" departLane="4[0]_0" departPos="5.10" departSpeed="0.00" departDelay="1.80" arrival="213.00" arrivalLane="16[0]_0" arrivalPos="187.21" arrivalSpeed="14.99" duration="175.00" routeLength="1076.53" waitingTime="73.00" waitingCount="1" stopTime="0.00" timeLoss="101.88" rerouteNo="0" devices="tripinfo_heavy_2905" vType="DEFAULT_VEHTYPE" speedFactor="1.10" vaporized=""/>
    <tripinfo id="medium_984" depart="68.00" departLane="63[0]_0" departPos="5.10" departSpeed="0.00" departDelay="0.00" arrival="228.00" arrivalLane="31_0" arrivalPos="180.06" arrivalSpeed="5.20" duration="160.00" routeLength="1143.04" waitingTime="47.00" waitingCount="3" stopTime="0.00" timeLoss="77.27" rerouteNo="0" devices="tripinfo_medium_984" vType="DEFAULT_VEHTYPE" speedFactor="1.01" vaporized=""/>
    <tripinfo id="light_23" depart="105.00" departLane="63[0]_0" departPos="5.10" departSpeed="0.00" departDelay="0.00" arrival="229.00" arrivalLane="10_0" arrivalPos="224.30" arrivalSpeed="15.18" duration="124.00" routeLength="930.95" waitingTime="49.00" waitingCount="2" stopTime="0.00" timeLoss="63.83" rerouteNo="0" devices="tripinfo_light_23" vType="DEFAULT_VEHTYPE" speedFactor="1.13" vaporized=""/>
    <tripinfo id="heavy_2983" depart="139.00" departLane="63[0]_0" departPos="5.10" departSpeed="0.00" departDelay="0.20" arrival="231.00" arrivalLane="10_0" arrivalPos="224.30" arrivalSpeed="14.38" duration="92.00" routeLength="930.95" waitingTime="12.00" waitingCount="1" stopTime="0.00" timeLoss="28.61" rerouteNo="0" devices="tripinfo_heavy_2983" vType="DEFAULT_VEHTYPE" speedFactor="1.06" vaporized=""/>
    <tripinfo id="heavy_2877" depart="2.00" departLane="26_0" departPos="5.10" departSpeed="0.00" departDelay="0.80" arrival="234.00" arrivalLane="33_0" arrivalPos="180.06" arrivalSpeed="11.26" duration="232.00" routeLength="1008.97" waitingTime="115.00" waitingCount="4" stopTime="0.00" timeLoss="142.41" rerouteNo="0" devices="tripinfo_heavy_2877" vType="DEFAULT_VEHTYPE" speedFactor="0.83" vaporized=""/>
    <tripinfo id="medium_998" depart="108.00" departLane="12_0" departPos="5.10" departSpeed="0.00" departDelay="3.00" arrival="236.00" arrivalLane="53a_0" arrivalPos="257.19" arrivalSpeed="9.27" duration="128.00" routeLength="834.40" waitingTime="30.00" waitingCount="1" stopTime="0.00" timeLoss="44.94" rerouteNo="0" devices="tripinfo_medium_998" vType="DEFAULT_VEHTYPE" speedFactor="0.73" vaporized=""/>
    <tripinfo id="heavy_2874" depart="1.00" departLane="63[0]_0" departPos="5.10" departSpeed="0.00" departDelay="0.80" arrival="237.00" arrivalLane="67_0" arrivalPos="245.60" arrivalSpeed="14.31" duration="236.00" routeLength="1471.57" waitingTime="86.00" waitingCount="3" stopTime="0.00" timeLoss="132.71" rerouteNo="0" devices="tripinfo_heavy_2874" vType="DEFAULT_VEHTYPE" speedFactor="1.06" vaporized=""/>
    <tripinfo id="heavy_2896" depart="30.00" departLane="65_0" departPos="5.10" departSpeed="0.00" departDelay="1.00" arrival="238.00" arrivalLane="10_0" arrivalPos="224.30" arrivalSpeed="13.08" duration="208.00" routeLength="1042.93" waitingTime="97.00" waitingCount="4" stopTime="0.00" timeLoss="128.36" rerouteNo="0" devices="tripinfo_heavy_2896" vType="DEFAULT_VEHTYPE" speedFactor="0.96" vaporized=""/>
    <tripinfo id="heavy_2984" depart="141.00" departLane="3[0]_0" departPos="5.10" departSpeed="0.00" departDelay="0.00" arrival="249.00" arrivalLane="3[1]b_0" arrivalPos="239.77" arrivalSpeed="11.31" duration="108.00" routeLength="620.38" waitingTime="43.00" waitingCount="1" stopTime="0.00" timeLoss="53.37" rerouteNo="0" devices="tripinfo_heavy_2984" vType="DEFAULT_VEHTYPE" speedFactor="0.83" vaporized=""/>
    <tripinfo id="heavy_2967" depart="118.00" departLane="11[0]_0" departPos="5.10" departSpeed="0.00" departDelay="0.60" arrival="253.00" arrivalLane="3[1]b_0" arrivalPos="239.77" arrivalSpeed="12.69" duration="135.00" routeLength="989.30" waitingTime="37.00" waitingCount="2" stopTime="0.00" timeLoss="57.71" rerouteNo="0" devices="tripinfo_heavy_2967" vType="DEFAULT_VEHTYPE" speedFactor="0.94" vaporized=""/>
    <tripinfo id="light_42" depart="177.00" departLane="63[0]_0" departPos="5.10" departSpeed="0.00" departDelay="0.00" arrival="256.00" arrivalLane="30_0" arrivalPos="97.00" arrivalSpeed="14.49" duration="79.00" routeLength="948.72" waitingTime="0.00" waitingCount="0" stopTime="0.00" timeLoss="17.01" rerouteNo="0" devices="tripinfo_light_42" vType="DEFAULT_VEHTYPE" speedFactor="1.13" vaporized=""/>
    <tripinfo id="heavy_3049" depart="198.00" departLane="54_0" departPos="5.10" departSpeed="0.00" departDelay="0.00" arrival="259.00" arrivalLane="40[1]_0" arrivalPos="497.68" arrivalSpeed="13.07" duration="61.00" routeLength="688.64" waitingTime="0.00" waitingCount="0" stopTime="0.00" timeLoss="9.00" rerouteNo="0" devices="tripinfo_heavy_3049" vType="DEFAULT_VEHTYPE" speedFactor="0.99" vaporized=""/>
    <tripinfo id="heavy_3026" depart="180.00" departLane="55_0" departPos="5.10" departSpeed="0.00" departDelay="0.60" arrival="260.00" arrivalLane="53a_0" arrivalPos="257.19" arrivalSpeed="16.28" duration="80.00" routeLength="434.27" waitingTime="43.00" waitingCount="1" stopTime="0.00" timeLoss="55.11" rerouteNo="0" devices="tripinfo_heavy_3026" vType="DEFAULT_VEHTYPE" speedFactor="1.26" vaporized=""/>
    <tripinfo id="heavy_2903" depart="35.00" departLane="63[0]_0" departPos="5.10" departSpeed="0.00" departDelay="0.40" arrival="262.00" arrivalLane="11[1][1]_0" arrivalPos="42.41" arrivalSpeed="14.68" duration="227.00" routeLength="1204.36" waitingTime="109.00" waitingCount="4" stopTime="0.00" timeLoss="151.37" rerouteNo="0" devices="tripinfo_heavy_2903" vType="DEFAULT_VEHTYPE" speedFactor="1.17" vaporized=""/>
    <tripinfo id="medium_970" depart="33.00" departLane="43_0" departPos="5.10" departSpeed="0.00" departDelay="0.00" arrival="271.00" arrivalLane="53a_0" arrivalPos="257.19" arrivalSpeed="12.00" duration="238.00" routeLength="1408.96" waitingTime="83.00" waitingCount="4" stopTime="0.00" timeLoss="119.53" rerouteNo="0" devices="tripinfo_medium_970" vType="DEFAULT_VEHTYPE" speedFactor="0.88" vaporized=""/>
    <tripinfo id="heavy_2946" depart="89.00" departLane="13[1]_0" departPos="5.10" departSpeed="0.00" departDelay="0.00" arrival="278.00" arrivalLane="21_0" arrivalPos="90.26" arrivalSpeed="13.48" duration="189.00" routeLength="1159.13" waitingTime="76.00" waitingCount="2" stopTime="0.00" timeLoss="104.48" rerouteNo="0" devices="tripinfo_heavy_2946" vType="DEFAULT_VEHTYPE" speedFactor="1.01" vaporized=""/>
    <tripinfo id="medium_995" depart="94.00" departLane="63[0]_0" departPos="5.10" departSpeed="0.00" departDelay="1.00" arrival="280.00" arrivalLane="21_0" arrivalPos="90.26" arrivalSpeed="14.10" duration="186.00" routeLength="1418.21" waitingTime="57.00" waitingCount="2" stopTime="0.00" timeLoss="88.29" rerouteNo="0" devices="tripinfo_medium_995" vType="DEFAULT_VEHTYPE" speedFactor="1.07" vaporized=""/>
    <tripinfo id="medium_1080" depart="262.00" departLane="53_0" departPos="5.10" departSpeed="0.00" departDelay="0.00" arrival="290.00" arrivalLane="53a_0" arrivalPos="257.19" arrivalSpeed="13.93" duration="28.00" routeLength="319.56" waitingTime="0.00" waitingCount="0" stopTime="0.00" timeLoss="5.09" rerouteNo="0" devices="tripinfo_medium_1080" vType="DEFAULT_VEHTYPE" speedFactor="1.04" vaporized=""/>
    <tripinfo id="heavy_2907" depart="37.00" departLane="13[0]_0" departPos="5.10" departSpeed="0.00" departDelay="0.20" arrival="295.00" arrivalLane="30_0" arrivalPos="97.00" arrivalSpeed="12.59" duration="258.00" routeLength="775.21" waitingTime="160.00" waitingCount="4" stopTime="0.00" timeLoss="200.17" rerouteNo="0" devices="tripinfo_heavy_2907" vType="DEFAULT_VEHTYPE" speedFactor="1.00" vaporized=""/>
    <tripinfo id="medium_978" depart="56.00" departLane="38[1][1]_0" departPos="5.10" departSpeed="0.00" departDelay="0.00" arrival="299.00" arrivalLane="64_0" arrivalPos="60.79" arrivalSpeed="15.57" duration="243.00" routeLength="577.73" waitingTime="180.00" waitingCount="3" stopTime="0.00" timeLoss="205.51" rerouteNo="0" devices="tripinfo_medium_978" vType="DEFAULT_VEHTYPE" speedFactor="1.15" vaporized=""/>
    <tripinfo id="heavy_2876" depart="2.00" departLane="41_0" departPos="5.10" departSpeed="0.00" departDelay="0.80" arrival="301.00" arrivalLane="64_0" arrivalPos="60.79" arrivalSpeed="14.15" duration="299.00" routeLength="1154.84" waitingTime="185.00" waitingCount="4" stopTime="0.00" timeLoss="215.95" rerouteNo="0" devices="tripinfo_heavy_2876" vType="DEFAULT_VEHTYPE" speedFactor="1.03" vaporized=""/>
    <tripinfo id="heavy_2986" depart="145.00" departLane="54_0" departPos="5.10" departSpeed="0.00" departDelay="0.80" arrival="301.00" arrivalLane="34[1][2]_0" arrivalPos="184.36" arrivalSpeed="13.66" duration="156.00" routeLength="797.55" waitingTime="78.00" waitingCount="2" stopTime="0.00" timeLoss="98.39" rerouteNo="0" devices="tripinfo_heavy_2986" vType="DEFAULT_VEHTYPE" speedFactor="1.03" vaporized=""/>
    <tripinfo id="medium_1016" depart="153.00" departLane="98_0" departPos="5.10" departSpeed="0.00" departDelay="0.50" arrival="328.00" arrivalLane="40[1]_0" arrivalPos="497.68" arrivalSpeed="14.43" duration="175.00" routeLength="1459.14" waitingTime="52.00" waitingCount="2" stopTime="0.00" timeLoss="76.92" rerouteNo="0" devices="tripinfo_medium_1016" vType="DEFAULT_VEHTYPE" speedFactor="1.10" vaporized=""/>
    <tripinfo id="heavy_3061" depart="208.00" departLane="54_0" departPos="5.10" departSpeed="0.00" departDelay="0.20" arrival="334.00" arrivalLane="40[1]_0" arrivalPos="497.68" arrivalSpeed="12.52" duration="126.00" routeLength="694.82" waitingTime="59.00" waitingCount="1" stopTime="0.00" timeLoss="72.14" rerouteNo="0" devices="tripinfo_heavy_3061" vType="DEFAULT_VEHTYPE" speedFactor="0.95" vaporized=""/>
    <tripinfo id="heavy_3012" depart="164.00" departLane="98_0" departPos="5.10" departSpeed="0.00" departDelay="0.80" arrival="337.00" arrivalLane="53a_0" arrivalPos="257.19" arrivalSpeed="14.62" duration="173.00" routeLength="1578.67" waitingTime="41.00" waitingCount="1" stopTime="0.00" timeLoss="69.58" rerouteNo="0" devices="tripinfo_heavy_3012" vType="DEFAULT_VEHTYPE" speedFactor="1.13" vaporized=""/>
    <tripinfo id="heavy_3118" depart="259.00" departLane="63[0]_0" departPos="5.10" departSpeed="0.00" departDelay="0.40" arrival="338.00" arrivalLane="4[1][1][1]_0" arrivalPos="171.54" arrivalSpeed="12.33" duration="79.00" routeLength="891.72" waitingTime="0.00" waitingCount="0" stopTime="0.00" timeLoss="12.09" rerouteNo="0" devices="tripinfo_heavy_3118" vType="DEFAULT_VEHTYPE" speedFactor="0.97" vaporized=""/>
    <tripinfo id="medium_996" depart="94.00" departLane="43_0" departPos="5.10" departSpeed="0.00" departDelay="0.00" arrival="341.00" arrivalLane="40[1]_0" arrivalPos="497.68" arrivalSpeed="13.12" duration="247.00" routeLength="1017.81" waitingTime="160.00" waitingCount="2" stopTime="0.00" timeLoss="175.55" rerouteNo="0" devices="tripinfo_medium_996" vType="DEFAULT_VEHTYPE" speedFactor="1.04" vaporized=""/>
    <tripinfo id="heavy_3112" depart="250.00" departLane="3[0]_0" departPos="5.10" departSpeed="0.00" departDelay="0.60" arrival="343.00" arrivalLane="10_0" arrivalPos="224.30" arrivalSpeed="13.01" duration="93.00" routeLength="405.53" waitingTime="51.00" waitingCount="1" stopTime="0.00" timeLoss="61.83" rerouteNo="0" devices="tripinfo_heavy_3112" vType="DEFAULT_VEHTYPE" speedFactor="0.98" vaporized=""/>
    <tripinfo id="heavy_3091" depart="233.00" departLane="13[0]_0" departPos="5.10" departSpeed="0.00" departDelay="1.60" arrival="350.00" arrivalLane="10_0" arrivalPos="224.30" arrivalSpeed="11.96" duration="117.00" routeLength="796.95" waitingTime="39.00" waitingCount="2" stopTime="0.00" timeLoss="54.36" rerouteNo="0" devices="tripinfo_heavy_3091" vType="DEFAULT_VEHTYPE" speedFactor="0.94" vaporized=""/>
    <tripinfo id="heavy_2919" depart="51.00" departLane="54_0" departPos="5.10" departSpeed="0.00" departDelay="0.60" arrival="351.00" arrivalLane="39[1][0]_0" arrivalPos="78.91" arrivalSpeed="12.90" duration="300.00" routeLength="928.18" waitingTime="179.00" waitingCount="6" stopTime="0.00" timeLoss="231.01" rerouteNo="0" devices="tripinfo_heavy_2919" vType="DEFAULT_VEHTYPE" speedFactor="1.01" vaporized=""/>
    <tripinfo id="light_14" depart="50.00" departLane="11[1][1]_0" departPos="5.10" departSpeed="0.00" departDelay="0.00" arrival="352.00" arrivalLane="26_0" arrivalPos="127.46" arrivalSpeed="13.11" duration="302.00" routeLength="701.64" waitingTime="233.00" waitingCount="2" stopTime="0.00" timeLoss="249.19" rerouteNo="0" devices="tripinfo_light_14" vType="DEFAULT_VEHTYPE" speedFactor="0.98" vaporized=""/>
    <tripinfo id="heavy_3171" depart="304.00" departLane="18_0" departPos="5.10" departSpeed="0.00" departDelay="3.40" arrival="356.00" arrivalLane="20+19a_0" arrivalPos="31.80" arrivalSpeed="6.35" duration="52.00" routeLength="189.35" waitingTime="18.00" waitingCount="2" stopTime="0.00" timeLoss="38.18" rerouteNo="0" devices="tripinfo_heavy_3171" vType="DEFAULT_VEHTYPE" speedFactor="1.01" vaporized=""/>
    <tripinfo id="light_58" depart="246.00" departLane="3[0]_0" departPos="5.10" departSpeed="0.00" departDelay="0.00" arrival="358.00" arrivalLane="3[1]b_0" arrivalPos="239.77" arrivalSpeed="13.29" duration="112.00" routeLength="620.38" waitingTime="54.00" waitingCount="1" stopTime="0.00" timeLoss="65.71" rerouteNo="0" devices="tripinfo_light_58" vType="DEFAULT_VEHTYPE" speedFactor="0.98" vaporized=""/>
    <tripinfo id="medium_1114" depart="308.00" departLane="3[0]_0" departPos="5.10" departSpeed="0.00" departDelay="0.00" arrival="358.00" arrivalLane="3[1]b_1" arrivalPos="239.77" arrivalSpeed="13.15" duration="50.00" routeLength="620.38" waitingTime="0.00" waitingCount="0" stopTime="0.00" timeLoss="5.38" rerouteNo="0" devices="tripinfo_medium_1114" vType="DEFAULT_VEHTYPE" speedFactor="1.01" vaporized=""/>
    <tripinfo id="heavy_2884" depart="11.00" departLane="2[0]_0" departPos="5.10" departSpeed="0.00" departDelay="0.00" arrival="359.00" arrivalLane="64_0" arrivalPos="60.79" arrivalSpeed="15.19" duration="348.00" routeLength="1385.28" waitingTime="199.00" waitingCount="7" stopTime="0.00" timeLoss="260.25" rerouteNo="0" devices="tripinfo_heavy_2884" vType="DEFAULT_VEHTYPE" speedFactor="1.16" vaporized=""/>
    <tripinfo id="medium_982" depart="65.00" departLane="24_0" departPos="5.10" departSpeed="0.00" departDelay="0.50" arrival="361.00" arrivalLane="64_0" arrivalPos="60.79" arrivalSpeed="15.11" duration="296.00" routeLength="893.30" waitingTime="177.00" waitingCount="7" stopTime="0.00" timeLoss="235.52" rerouteNo="0" devices="tripinfo_medium_982" vType="DEFAULT_VEHTYPE" speedFactor="1.09" vaporized=""/>
    <tripinfo id="medium_997" depart="101.00" departLane="13[0]_0" departPos="5.10" departSpeed="0.00" departDelay="0.00" arrival="361.00" arrivalLane="16[1]_0" arrivalPos="220.36" arrivalSpeed="8.42" duration="260.00" routeLength="932.06" waitingTime="161.00" waitingCount="2" stopTime="0.00" timeLoss="190.72" rerouteNo="0" devices="tripinfo_medium_997" vType="DEFAULT_VEHTYPE" speedFactor="1.00" vaporized=""/>
    <tripinfo id="heavy_3138" depart="274.00" departLane="3[0]_0" departPos="5.10" departSpeed="0.00" departDelay="0.80" arrival="365.00" arrivalLane="10_0" arrivalPos="224.30" arrivalSpeed="9.81" duration="91.00" routeLength="405.53" waitingTime="42.00" waitingCount="2" stopTime="0.00" timeLoss="53.12" rerouteNo="0" devices="tripinfo_heavy_3138" vType="DEFAULT_VEHTYPE" speedFactor="0.80" vaporized=""/>
    <tripinfo id="medium_992" depart="84.00" departLane="17[0]_0" departPos="5.10" departSpeed="0.00" departDelay="0.00" arrival="366.00" arrivalLane="4[1][1][1]_0" arrivalPos="171.54" arrivalSpeed="13.31" duration="282.00" routeLength="963.03" waitingTime="166.00" waitingCount="7" stopTime="0.00" timeLoss="213.78" rerouteNo="0" devices="tripinfo_medium_992" vType="DEFAULT_VEHTYPE" speedFactor="1.03" vaporized=""/>
    <tripinfo id="heavy_3144" depart="278.00" departLane="3[0]_0" departPos="5.10" departSpeed="0.00" departDelay="0.20" arrival="367.00" arrivalLane="10_0" arrivalPos="224.30" arrivalSpeed="11.94" duration="89.00" routeLength="405.53" waitingTime="39.00" waitingCount="2" stopTime="0.00" timeLoss="54.23" rerouteNo="0" devices="tripinfo_heavy_3144" vType="DEFAULT_VEHTYPE" speedFactor="0.87" vaporized=""/>
    <tripinfo id="heavy_2941" depart="82.00" departLane="63[0]_0" departPos="5.10" departSpeed="0.00" departDelay="0.20" arrival="368.00" arrivalLane="33_0" arrivalPos="180.06" arrivalSpeed="13.74" duration="286.00" routeLength="1327.96" waitingTime="128.00" waitingCount="6" stopTime="0.00" timeLoss="186.34" rerouteNo="0" devices="tripinfo_heavy_2941" vType="DEFAULT_VEHTYPE" speedFactor="0.99" vaporized=""/>
    <tripinfo id="heavy_3116" depart="259.00" departLane="12_0" departPos="5.10" departSpeed="0.00" departDelay="5.60" arrival="368.00" arrivalLane="97_0" arrivalPos="214.55" arrivalSpeed="15.40" duration="109.00" routeLength="835.19" waitingTime="40.00" waitingCount="1" stopTime="0.00" timeLoss="53.78" rerouteNo="0" devices="tripinfo_heavy_3116" vType="DEFAULT_VEHTYPE" speedFactor="1.13" vaporized=""/>
    <tripinfo id="heavy_2882" depart="7.00" departLane="26_0" departPos="5.10" departSpeed="0.00" departDelay="0.60" arrival="374.00" arrivalLane="10_0" arrivalPos="224.30" arrivalSpeed="12.06" duration="367.00" routeLength="1332.28" waitingTime="225.00" waitingCount="4" stopTime="0.00" timeLoss="261.28" rerouteNo="0" devices="tripinfo_heavy_2882" vType="DEFAULT_VEHTYPE" speedFactor="0.93" vaporized=""/>
    <tripinfo id="light_7" depart="26.00" departLane="1[0]_0" departPos="5.10" departSpeed="0.00" departDelay="0.00" arrival="378.00" arrivalLane="17[1]_0" arrivalPos="187.21" arrivalSpeed="5.83" duration="352.00" routeLength="1071.01" waitingTime="204.00" waitingCount="8" stopTime="0.00" timeLoss="274.23" rerouteNo="0" devices="tripinfo_light_7" vType="DEFAULT_VEHTYPE" speedFactor="0.99" vaporized=""/>
    <tripinfo id="medium_987" depart="77.00" departLane="28_0" departPos="5.10" departSpeed="0.00" departDelay="0.00" arrival="378.00" arrivalLane="1[1]_1" arrivalPos="482.70" arrivalSpeed="5.75" duration="301.00" routeLength="1298.56" waitingTime="168.00" waitingCount="5" stopTime="0.00" timeLoss="209.62" rerouteNo="0" devices="tripinfo_medium_987" vType="DEFAULT_VEHTYPE" speedFactor="1.03" vaporized=""/>
    <tripinfo id="heavy_3188" depart="321.00" departLane="63[1]_0" departPos="5.10" departSpeed="0.00" departDelay="0.60" arrival="380.00" arrivalLane="4[1][1][1]_1" arrivalPos="171.54" arrivalSpeed="15.42" duration="59.00" routeLength="773.08" waitingTime="0.00" waitingCount="0" stopTime="0.00" timeLoss="9.06" rerouteNo="0" devices="tripinfo_heavy_3188" vType="DEFAULT_VEHTYPE" speedFactor="1.13" vaporized=""/>
    <tripinfo id="heavy_2922" depart="54.00" departLane="63[0]_0" departPos="5.10" departSpeed="0.00" departDelay="0.80" arrival="381.00" arrivalLane="1[1]_1" arrivalPos="482.70" arrivalSpeed="7.78" duration="327.00" routeLength="1817.57" waitingTime="147.00" waitingCount="6" stopTime="0.00" timeLoss="196.53" rerouteNo="0" devices="tripinfo_heavy_2922" vType="DEFAULT_VEHTYPE" speedFactor="1.02" vaporized=""/>