<?xml version="1.0" encoding="UTF-8"?>

<!-- generated on 2025-04-18 13:49:53 by Eclipse SUMO sumo Version 1.22.0
<sumoConfiguration xmlns:xsi="http://www.w3.org/2001/XMLSchema-instance" xsi:noNamespaceSchemaLocation="http://sumo.dlr.de/xsd/sumoConfiguration.xsd">

    <input>
        <net-file value="pasubio_buslanes.net.xml"/>
        <route-files value="route_mixed_episode_1000.rou.xml"/>
        <additional-files value="pasubio_vtypes.add.xml,pasubio_bus_stops.add.xml,pasubio_busses.rou.xml,pasubio_detectors.add.xml,pasubio_tls.add.xml"/>
    </input>

    <output>
        <tripinfo-output value="tripinfos.xml"/>
    </output>

    <processing>
        <time-to-teleport value="300"/>
        <waiting-time-memory value="3600"/>
        <max-depart-delay value="100000"/>
    </processing>

    <report>
        <no-warnings value="true"/>
        <log value="../output/sumo.log"/>
        <message-log value="../output/sumo_messages.log"/>
        <error-log value="../output/sumo_errors.log"/>
        <no-step-log value="true"/>
    </report>

    <traci_server>
        <remote-port value="58549"/>
    </traci_server>

</sumoConfiguration>
-->

<tripinfos xmlns:xsi="http://www.w3.org/2001/XMLSchema-instance" xsi:noNamespaceSchemaLocation="http://sumo.dlr.de/xsd/tripinfo_file.xsd">
    <tripinfo id="heavy_2879" depart="5.00" departLane="98_0" departPos="5.10" departSpeed="0.00" departDelay="0.80" arrival="52.00" arrivalLane="26_0" arrivalPos="127.46" arrivalSpeed="15.00" duration="47.00" routeLength="544.36" waitingTime="0.00" waitingCount="0" stopTime="0.00" timeLoss="9.24" rerouteNo="0" devices="tripinfo_heavy_2879" vType="DEFAULT_VEHTYPE" speedFactor="1.09" vaporized=""/>
    <tripinfo id="medium_959" depart="4.00" departLane="63[0]_0" departPos="5.10" departSpeed="0.00" departDelay="3.00" arrival="69.00" arrivalLane="4[1][1][1]_1" arrivalPos="171.54" arrivalSpeed="15.01" duration="65.00" routeLength="878.61" waitingTime="0.00" waitingCount="0" stopTime="0.00" timeLoss="5.74" rerouteNo="0" devices="tripinfo_medium_959" vType="DEFAULT_VEHTYPE" speedFactor="1.08" vaporized=""/>
    <tripinfo id="heavy_2886" depart="15.00" departLane="1[0]_0" departPos="5.10" departSpeed="0.00" departDelay="0.40" arrival="73.00" arrivalLane="25_1" arrivalPos="22.66" arrivalSpeed="11.04" duration="58.00" routeLength="459.78" waitingTime="8.00" waitingCount="1" stopTime="0.00" timeLoss="17.51" rerouteNo="0" devices="tripinfo_heavy_2886" vType="DEFAULT_VEHTYPE" speedFactor="0.83" vaporized=""/>
    <tripinfo id="heavy_2878" depart="3.00" departLane="81_0" departPos="5.10" departSpeed="0.00" departDelay="0.60" arrival="74.00" arrivalLane="40[1]_0" arrivalPos="497.68" arrivalSpeed="12.14" duration="71.00" routeLength="782.67" waitingTime="0.00" waitingCount="0" stopTime="0.00" timeLoss="6.23" rerouteNo="0" devices="tripinfo_heavy_2878" vType="DEFAULT_VEHTYPE" speedFactor="0.89" vaporized=""/>
    <tripinfo id="light_13" depart="47.00" departLane="54_0" departPos="5.10" departSpeed="0.00" departDelay="0.00" arrival="88.00" arrivalLane="42_0" arrivalPos="42.93" arrivalSpeed="5.43" duration="41.00" routeLength="396.96" waitingTime="0.00" waitingCount="0" stopTime="0.00" timeLoss="9.72" rerouteNo="0" devices="tripinfo_light_13" vType="DEFAULT_VEHTYPE" speedFactor="0.96" vaporized=""/>
    <tripinfo id="heavy_2875" depart="1.00" departLane="17[0]_0" departPos="5.10" departSpeed="0.00" departDelay="0.60" arrival="98.00" arrivalLane="33_0" arrivalPos="180.06" arrivalSpeed="12.08" duration="97.00" routeLength="706.26" waitingTime="25.00" waitingCount="2" stopTime="0.00" timeLoss="40.76" rerouteNo="0" devices="tripinfo_heavy_2875" vType="DEFAULT_VEHTYPE" speedFactor="0.94" vaporized=""/>
    <tripinfo id="medium_969" depart="33.00" departLane="6_0" departPos="5.10" departSpeed="0.00" departDelay="0.00" arrival="109.00" arrivalLane="4[1][1][1]_1" arrivalPos="171.54" arrivalSpeed="11.91" duration="76.00" routeLength="547.50" waitingTime="19.00" waitingCount="2" stopTime="0.00" timeLoss="30.69" rerouteNo="0" devices="tripinfo_medium_969" vType="DEFAULT_VEHTYPE" speedFactor="0.90" vaporized=""/>
    <tripinfo id="heavy_2890" depart="20.00" departLane="43_0" departPos="5.10" departSpeed="0.00" departDelay="0.00" arrival="112.00" arrivalLane="40[1]_0" arrivalPos="497.68" arrivalSpeed="15.16" duration="92.00" routeLength="1017.81" waitingTime="14.00" waitingCount="1" stopTime="0.00" timeLoss="26.40" rerouteNo="0" devices="tripinfo_heavy_2890" vType="DEFAULT_VEHTYPE" speedFactor="1.13" vaporized=""/>
    <tripinfo id="heavy_2926" depart="60.00" departLane="52_0" departPos="5.10" departSpeed="0.00" departDelay="2.60" arrival="115.00" arrivalLane="56[0]_1" arrivalPos="215.10" arrivalSpeed="13.39" duration="55.00" routeLength="551.30" waitingTime="4.00" waitingCount="1" stopTime="0.00" timeLoss="14.19" rerouteNo="0" devices="tripinfo_heavy_2926" vType="DEFAULT_VEHTYPE" speedFactor="1.01" vaporized=""/>
    <tripinfo id="heavy_2906" depart="38.00" departLane="63[0]_0" departPos="5.10" departSpeed="0.00" departDelay="1.40" arrival="117.00" arrivalLane="4[1][1][1]_0" arrivalPos="171.54" arrivalSpeed="13.50" duration="79.00" routeLength="891.72" waitingTime="3.00" waitingCount="1" stopTime="0.00" timeLoss="14.86" rerouteNo="0" devices="tripinfo_heavy_2906" vType="DEFAULT_VEHTYPE" speedFactor="1.00" vaporized=""/>
    <tripinfo id="medium_971" depart="37.00" departLane="17[0]_0" departPos="5.10" departSpeed="0.00" departDelay="0.00" arrival="119.00" arrivalLane="70_0" arrivalPos="60.87" arrivalSpeed="11.72" duration="82.00" routeLength="675.56" waitingTime="7.00" waitingCount="2" stopTime="0.00" timeLoss="26.74" rerouteNo="0" devices="tripinfo_medium_971" vType="DEFAULT_VEHTYPE" speedFactor="0.90" vaporized=""/>
    <tripinfo id="medium_989" depart="79.00" departLane="3[0]_0" departPos="5.10" departSpeed="0.00" departDelay="0.00" arrival="119.00" arrivalLane="3[1]_0" arrivalPos="172.58" arrivalSpeed="11.90" duration="40.00" routeLength="367.84" waitingTime="1.00" waitingCount="1" stopTime="0.00" timeLoss="9.40" rerouteNo="0" devices="tripinfo_medium_989" vType="DEFAULT_VEHTYPE" speedFactor="0.87" vaporized=""/>
    <tripinfo id="light_14" depart="50.00" departLane="11[1][1]_0" departPos="5.10" departSpeed="0.00" departDelay="0.00" arrival="122.00" arrivalLane="26_0" arrivalPos="127.46" arrivalSpeed="12.87" duration="72.00" routeLength="701.64" waitingTime="3.00" waitingCount="2" stopTime="0.00" timeLoss="18.84" rerouteNo="0" devices="tripinfo_light_14" vType="DEFAULT_VEHTYPE" speedFactor="0.98" vaporized=""/>
    <tripinfo id="heavy_2921" depart="53.00" departLane="6_0" departPos="5.10" departSpeed="0.00" departDelay="0.20" arrival="127.00" arrivalLane="4[1][1][1]_1" arrivalPos="171.54" arrivalSpeed="13.63" duration="74.00" routeLength="547.50" waitingTime="17.00" waitingCount="2" stopTime="0.00" timeLoss="33.74" rerouteNo="0" devices="tripinfo_heavy_2921" vType="DEFAULT_VEHTYPE" speedFactor="1.00" vaporized=""/>
    <tripinfo id="heavy_2939" depart="81.00" departLane="1[0]_0" departPos="5.10" departSpeed="0.00" departDelay="0.40" arrival="130.00" arrivalLane="21_0" arrivalPos="90.26" arrivalSpeed="15.51" duration="49.00" routeLength="508.35" waitingTime="7.00" waitingCount="1" stopTime="0.00" timeLoss="16.93" rerouteNo="0" devices="tripinfo_heavy_2939" vType="DEFAULT_VEHTYPE" speedFactor="1.18" vaporized=""/>
    <tripinfo id="medium_983" depart="66.00" departLane="71_0" departPos="5.10" departSpeed="0.00" departDelay="0.00" arrival="132.00" arrivalLane="34[1][1]_0" arrivalPos="184.36" arrivalSpeed="13.56" duration="66.00" routeLength="788.57" waitingTime="0.00" waitingCount="0" stopTime="0.00" timeLoss="10.58" rerouteNo="0" devices="tripinfo_medium_983" vType="DEFAULT_VEHTYPE" speedFactor="1.06" vaporized=""/>
    <tripinfo id="light_8" depart="30.00" departLane="12_0" departPos="5.10" departSpeed="0.00" departDelay="1.00" arrival="136.00" arrivalLane="53a_0" arrivalPos="257.19" arrivalSpeed="11.62" duration="106.00" routeLength="834.40" waitingTime="21.00" waitingCount="2" stopTime="0.00" timeLoss="38.59" rerouteNo="0" devices="tripinfo_light_8" vType="DEFAULT_VEHTYPE" speedFactor="0.90" vaporized=""/>
    <tripinfo id="light_0" depart="1.00" departLane="22[0]_0" departPos="5.10" departSpeed="0.00" departDelay="0.00" arrival="145.00" arrivalLane="40[0]_0" arrivalPos="205.19" arrivalSpeed="13.33" duration="144.00" routeLength="970.17" waitingTime="58.00" waitingCount="2" stopTime="0.00" timeLoss="74.84" rerouteNo="0" devices="tripinfo_light_0" vType="DEFAULT_VEHTYPE" speedFactor="1.01" vaporized=""/>
    <tripinfo id="medium_990" depart="79.00" departLane="54_0" departPos="5.10" departSpeed="0.00" departDelay="0.00" arrival="148.00" arrivalLane="44_1" arrivalPos="123.23" arrivalSpeed="15.15" duration="69.00" routeLength="552.96" waitingTime="14.00" waitingCount="1" stopTime="0.00" timeLoss="31.52" rerouteNo="0" devices="tripinfo_medium_990" vType="DEFAULT_VEHTYPE" speedFactor="1.10" vaporized=""/>
    <tripinfo id="medium_961" depart="4.00" departLane="22[0]_0" departPos="5.10" departSpeed="0.00" departDelay="0.00" arrival="151.00" arrivalLane="70_0" arrivalPos="60.87" arrivalSpeed="11.14" duration="147.00" routeLength="1144.29" waitingTime="26.00" waitingCount="3" stopTime="0.00" timeLoss="48.73" rerouteNo="0" devices="tripinfo_medium_961" vType="DEFAULT_VEHTYPE" speedFactor="0.86" vaporized=""/>
    <tripinfo id="heavy_2884" depart="11.00" departLane="2[0]_0" departPos="5.10" departSpeed="0.00" departDelay="0.00" arrival="151.00" arrivalLane="64_0" arrivalPos="60.79" arrivalSpeed="15.02" duration="140.00" routeLength="1385.28" waitingTime="24.00" waitingCount="2" stopTime="0.00" timeLoss="52.72" rerouteNo="0" devices="tripinfo_heavy_2884" vType="DEFAULT_VEHTYPE" speedFactor="1.16" vaporized=""/>
    <tripinfo id="heavy_2938" depart="80.00" departLane="39[1][0]_0" departPos="5.10" departSpeed="0.00" departDelay="0.20" arrival="151.00" arrivalLane="39[1][1][0]_0" arrivalPos="196.54" arrivalSpeed="9.02" duration="71.00" routeLength="285.76" waitingTime="32.00" waitingCount="2" stopTime="0.00" timeLoss="48.10" rerouteNo="0" devices="tripinfo_heavy_2938" vType="DEFAULT_VEHTYPE" speedFactor="0.92" vaporized=""/>
    <tripinfo id="light_2" depart="7.00" departLane="52_0" departPos="5.10" departSpeed="0.00" departDelay="1.00" arrival="153.00" arrivalLane="38[1][1]a_0" arrivalPos="91.98" arrivalSpeed="5.22" duration="146.00" routeLength="764.59" waitingTime="73.00" waitingCount="1" stopTime="0.00" timeLoss="92.09" rerouteNo="0" devices="tripinfo_light_2" vType="DEFAULT_VEHTYPE" speedFactor="1.05" vaporized=""/>
    <tripinfo id="light_6" depart="24.00" departLane="45_0" departPos="5.10" departSpeed="0.00" departDelay="0.00" arrival="161.00" arrivalLane="53a_0" arrivalPos="257.19" arrivalSpeed="15.46" duration="137.00" routeLength="1610.04" waitingTime="15.00" waitingCount="1" stopTime="0.00" timeLoss="35.98" rerouteNo="0" devices="tripinfo_light_6" vType="DEFAULT_VEHTYPE" speedFactor="1.17" vaporized=""/>
    <tripinfo id="heavy_2917" depart="49.00" departLane="17[1]_0" departPos="5.10" departSpeed="0.00" departDelay="0.20" arrival="167.00" arrivalLane="3[1]b_0" arrivalPos="239.77" arrivalSpeed="12.95" duration="118.00" routeLength="991.77" waitingTime="28.00" waitingCount="2" stopTime="0.00" timeLoss="43.98" rerouteNo="0" devices="tripinfo_heavy_2917" vType="DEFAULT_VEHTYPE" speedFactor="0.98" vaporized=""/>
    <tripinfo id="medium_993" depart="87.00" departLane="71_0" departPos="5.10" departSpeed="0.00" departDelay="0.50" arrival="172.00" arrivalLane="34[1][1]_0" arrivalPos="184.36" arrivalSpeed="13.88" duration="85.00" routeLength="788.57" waitingTime="13.00" waitingCount="1" stopTime="0.00" timeLoss="29.03" rerouteNo="0" devices="tripinfo_medium_993" vType="DEFAULT_VEHTYPE" speedFactor="1.03" vaporized=""/>
    <tripinfo id="heavy_2953" depart="103.00" departLane="6_0" departPos="5.10" departSpeed="0.00" departDelay="0.40" arrival="175.00" arrivalLane="4[1][1][1]_1" arrivalPos="171.54" arrivalSpeed="15.13" duration="72.00" routeLength="547.50" waitingTime="22.00" waitingCount="2" stopTime="0.00" timeLoss="37.60" rerouteNo="0" devices="tripinfo_heavy_2953" vType="DEFAULT_VEHTYPE" speedFactor="1.16" vaporized=""/>
    <tripinfo id="heavy_2964" depart="116.00" departLane="54_0" departPos="5.10" departSpeed="0.00" departDelay="1.00" arrival="178.00" arrivalLane="40[1]_0" arrivalPos="497.68" arrivalSpeed="14.67" duration="62.00" routeLength="694.82" waitingTime="2.00" waitingCount="1" stopTime="0.00" timeLoss="15.55" rerouteNo="0" devices="tripinfo_heavy_2964" vType="DEFAULT_VEHTYPE" speedFactor="1.13" vaporized=""/>
    <tripinfo id="heavy_2962" depart="114.00" departLane="22[0]_0" departPos="5.10" departSpeed="0.00" departDelay="2.60" arrival="181.00" arrivalLane="44_0" arrivalPos="123.23" arrivalSpeed="15.07" duration="67.00" routeLength="868.70" waitingTime="0.00" waitingCount="0" stopTime="0.00" timeLoss="11.43" rerouteNo="0" devices="tripinfo_heavy_2962" vType="DEFAULT_VEHTYPE" speedFactor="1.14" vaporized=""/>
    <tripinfo id="heavy_2881" depart="7.00" departLane="65_0" departPos="5.10" departSpeed="0.00" departDelay="0.80" arrival="182.00" arrivalLane="1[1]_0" arrivalPos="482.70" arrivalSpeed="13.41" duration="175.00" routeLength="1622.03" waitingTime="21.00" waitingCount="3" stopTime="0.00" timeLoss="54.84" rerouteNo="0" devices="tripinfo_heavy_2881" vType="DEFAULT_VEHTYPE" speedFactor="0.99" vaporized=""/>
    <tripinfo id="heavy_2907" depart="37.00" departLane="13[0]_0" departPos="5.10" departSpeed="0.00" departDelay="0.20" arrival="182.00" arrivalLane="30_0" arrivalPos="97.00" arrivalSpeed="13.48" duration="145.00" routeLength="775.21" waitingTime="54.00" waitingCount="2" stopTime="0.00" timeLoss="87.54" rerouteNo="0" devices="tripinfo_heavy_2907" vType="DEFAULT_VEHTYPE" speedFactor="1.00" vaporized=""/>
    <tripinfo id="heavy_2880" depart="5.00" departLane="12_0" departPos="5.10" departSpeed="0.00" departDelay="0.60" arrival="183.00" arrivalLane="34[1][1]_0" arrivalPos="184.36" arrivalSpeed="13.63" duration="178.00" routeLength="1568.95" waitingTime="44.00" waitingCount="3" stopTime="0.00" timeLoss="67.12" rerouteNo="0" devices="tripinfo_heavy_2880" vType="DEFAULT_VEHTYPE" speedFactor="1.03" vaporized=""/>
    <tripinfo id="medium_980" depart="63.00" departLane="52_0" departPos="5.10" departSpeed="0.00" departDelay="5.50" arrival="186.00" arrivalLane="34[1][1]_0" arrivalPos="184.36" arrivalSpeed="13.86" duration="123.00" routeLength="1383.19" waitingTime="2.00" waitingCount="1" stopTime="0.00" timeLoss="22.57" rerouteNo="0" devices="tripinfo_medium_980" vType="DEFAULT_VEHTYPE" speedFactor="1.02" vaporized=""/>
    <tripinfo id="heavy_2891" depart="22.00" departLane="22[0]_0" departPos="5.10" departSpeed="0.00" departDelay="0.80" arrival="187.00" arrivalLane="70_0" arrivalPos="60.87" arrivalSpeed="15.20" duration="165.00" routeLength="1144.29" waitingTime="62.00" waitingCount="4" stopTime="0.00" timeLoss="93.51" rerouteNo="0" devices="tripinfo_heavy_2891" vType="DEFAULT_VEHTYPE" speedFactor="1.18" vaporized=""/>
    <tripinfo id="medium_968" depart="29.00" departLane="22[0]_0" departPos="5.10" departSpeed="0.00" departDelay="0.00" arrival="187.00" arrivalLane="33_0" arrivalPos="180.06" arrivalSpeed="14.28" duration="158.00" routeLength="1174.99" waitingTime="52.00" waitingCount="3" stopTime="0.00" timeLoss="73.74" rerouteNo="0" devices="tripinfo_medium_968" vType="DEFAULT_VEHTYPE" speedFactor="1.03" vaporized=""/>
    <tripinfo id="heavy_2999" depart="156.00" departLane="11[0]_0" departPos="5.10" departSpeed="0.00" departDelay="0.80" arrival="189.00" arrivalLane="101_0" arrivalPos="93.10" arrivalSpeed="13.40" duration="33.00" routeLength="268.49" waitingTime="3.00" waitingCount="1" stopTime="0.00" timeLoss="13.47" rerouteNo="0" devices="tripinfo_heavy_2999" vType="DEFAULT_VEHTYPE" speedFactor="1.00" vaporized=""/>
    <tripinfo id="light_32" depart="128.00" departLane="101_0" departPos="5.10" departSpeed="0.00" departDelay="0.00" arrival="192.00" arrivalLane="34[1][1]_0" arrivalPos="184.36" arrivalSpeed="12.27" duration="64.00" routeLength="699.91" waitingTime="0.00" waitingCount="0" stopTime="0.00" timeLoss="9.53" rerouteNo="0" devices="tripinfo_light_32" vType="DEFAULT_VEHTYPE" speedFactor="0.94" vaporized=""/>
    <tripinfo id="heavy_2919" depart="51.00" departLane="54_0" departPos="5.10" departSpeed="0.00" departDelay="0.60" arrival="194.00" arrivalLane="39[1][0]_0" arrivalPos="78.91" arrivalSpeed="13.39" duration="143.00" routeLength="928.18" waitingTime="35.00" waitingCount="3" stopTime="0.00" timeLoss="73.45" rerouteNo="0" devices="tripinfo_heavy_2919" vType="DEFAULT_VEHTYPE" speedFactor="1.01" vaporized=""/>
    <tripinfo id="light_18" depart="79.00" departLane="a1[1]_0" departPos="0.20" departSpeed="0.00" departDelay="0.00" arrival="194.00" arrivalLane="38[0]_0" arrivalPos="59.42" arrivalSpeed="11.78" duration="115.00" routeLength="589.38" waitingTime="45.00" waitingCount="3" stopTime="0.00" timeLoss="69.03" rerouteNo="0" devices="tripinfo_light_18" vType="DEFAULT_VEHTYPE" speedFactor="0.93" vaporized=""/>
    <tripinfo id="light_23" depart="105.00" departLane="63[0]_0" departPos="5.10" departSpeed="0.00" departDelay="0.00" arrival="194.00" arrivalLane="10_0" arrivalPos="224.30" arrivalSpeed="15.08" duration="89.00" routeLength="930.95" waitingTime="15.00" waitingCount="2" stopTime="0.00" timeLoss="28.54" rerouteNo="0" devices="tripinfo_light_23" vType="DEFAULT_VEHTYPE" speedFactor="1.13" vaporized=""/>
    <tripinfo id="light_9" depart="32.00" departLane="45_0" departPos="5.10" departSpeed="0.00" departDelay="0.00" arrival="196.00" arrivalLane="56[0]_0" arrivalPos="215.10" arrivalSpeed="11.18" duration="164.00" routeLength="1496.24" waitingTime="25.00" waitingCount="3" stopTime="0.00" timeLoss="61.38" rerouteNo="0" devices="tripinfo_light_9" vType="DEFAULT_VEHTYPE" speedFactor="1.09" vaporized=""/>
    <tripinfo id="heavy_2943" depart="85.00" departLane="11[0]_0" departPos="5.10" departSpeed="0.00" departDelay="0.40" arrival="196.00" arrivalLane="46_0" arrivalPos="210.19" arrivalSpeed="13.17" duration="111.00" routeLength="1106.75" waitingTime="4.00" waitingCount="2" stopTime="0.00" timeLoss="31.22" rerouteNo="0" devices="tripinfo_heavy_2943" vType="DEFAULT_VEHTYPE" speedFactor="1.02" vaporized=""/>
    <tripinfo id="light_19" depart="83.00" departLane="39[1][0]_0" departPos="5.10" departSpeed="0.00" departDelay="0.00" arrival="199.00" arrivalLane="34[1][1]_0" arrivalPos="184.36" arrivalSpeed="13.64" duration="116.00" routeLength="681.05" waitingTime="41.00" waitingCount="3" stopTime="0.00" timeLoss="68.59" rerouteNo="0" devices="tripinfo_light_19" vType="DEFAULT_VEHTYPE" speedFactor="1.07" vaporized=""/>
    <tripinfo id="heavy_2920" depart="52.00" departLane="1[0]_0" departPos="5.10" departSpeed="0.00" departDelay="0.80" arrival="205.00" arrivalLane="4[1][1][0]_0" arrivalPos="170.25" arrivalSpeed="13.25" duration="153.00" routeLength="1388.27" waitingTime="21.00" waitingCount="2" stopTime="0.00" timeLoss="55.14" rerouteNo="0" devices="tripinfo_heavy_2920" vType="DEFAULT_VEHTYPE" speedFactor="1.03" vaporized=""/>
    <tripinfo id="medium_970" depart="33.00" departLane="43_0" departPos="5.10" departSpeed="0.00" departDelay="0.00" arrival="208.00" arrivalLane="53a_0" arrivalPos="257.19" arrivalSpeed="11.30" duration="175.00" routeLength="1408.96" waitingTime="25.00" waitingCount="4" stopTime="0.00" timeLoss="56.77" rerouteNo="0" devices="tripinfo_medium_970" vType="DEFAULT_VEHTYPE" speedFactor="0.88" vaporized=""/>
    <tripinfo id="heavy_2904" depart="35.00" departLane="71_0" departPos="5.10" departSpeed="0.00" departDelay="0.40" arrival="210.00" arrivalLane="53a_0" arrivalPos="257.19" arrivalSpeed="14.09" duration="175.00" routeLength="1758.40" waitingTime="14.00" waitingCount="2" stopTime="0.00" timeLoss="47.22" rerouteNo="0" devices="tripinfo_heavy_2904" vType="DEFAULT_VEHTYPE" speedFactor="1.02" vaporized=""/>
    <tripinfo id="heavy_2965" depart="116.00" departLane="50[1]a_0" departPos="5.10" departSpeed="0.00" departDelay="0.20" arrival="210.00" arrivalLane="44_1" arrivalPos="123.23" arrivalSpeed="12.32" duration="94.00" routeLength="671.58" waitingTime="23.00" waitingCount="2" stopTime="0.00" timeLoss="39.30" rerouteNo="0" devices="tripinfo_heavy_2965" vType="DEFAULT_VEHTYPE" speedFactor="0.91" vaporized=""/>
    <tripinfo id="heavy_2887" depart="15.00" departLane="22[0]_0" departPos="5.10" departSpeed="0.00" departDelay="0.20" arrival="211.00" arrivalLane="40[1]_0" arrivalPos="497.68" arrivalSpeed="11.44" duration="196.00" routeLength="1487.06" waitingTime="54.00" waitingCount="2" stopTime="0.00" timeLoss="73.25" rerouteNo="0" devices="tripinfo_heavy_2887" vType="DEFAULT_VEHTYPE" speedFactor="0.87" vaporized=""/>
    <tripinfo id="heavy_2933" depart="74.00" departLane="71_0" departPos="5.10" departSpeed="0.00" departDelay="2.00" arrival="212.00" arrivalLane="4[1][1][1]_0" arrivalPos="171.54" arrivalSpeed="12.55" duration="138.00" routeLength="785.26" waitingTime="57.00" waitingCount="3" stopTime="0.00" timeLoss="77.71" rerouteNo="0" devices="tripinfo_heavy_2933" vType="DEFAULT_VEHTYPE" speedFactor="0.95" vaporized=""/>
    <tripinfo id="heavy_2984" depart="141.00" departLane="3[0]_0" departPos="5.10" departSpeed="0.00" departDelay="0.00" arrival="214.00" arrivalLane="3[1]b_0" arrivalPos="239.77" arrivalSpeed="11.32" duration="73.00" routeLength="620.38" waitingTime="8.00" waitingCount="1" stopTime="0.00" timeLoss="18.88" rerouteNo="0" devices="tripinfo_heavy_2984" vType="DEFAULT_VEHTYPE" speedFactor="0.83" vaporized=""/>
    <tripinfo id="heavy_2957" depart="107.00" departLane="34[1][2]_0" departPos="5.10" departSpeed="0.00" departDelay="0.20" arrival="215.00" arrivalLane="42_1" arrivalPos="42.93" arrivalSpeed="10.51" duration="108.00" routeLength="930.52" waitingTime="4.00" waitingCount="2" stopTime="0.00" timeLoss="36.01" rerouteNo="0" devices="tripinfo_heavy_2957" vType="DEFAULT_VEHTYPE" speedFactor="0.97" vaporized=""/>
    <tripinfo id="heavy_2983" depart="139.00" departLane="63[0]_0" departPos="5.10" departSpeed="0.00" departDelay="0.20" arrival="226.00" arrivalLane="10_0" arrivalPos="224.30" arrivalSpeed="13.59" duration="87.00" routeLength="944.06" waitingTime="11.00" waitingCount="1" stopTime="0.00" timeLoss="22.22" rerouteNo="0" devices="tripinfo_heavy_2983" vType="DEFAULT_VEHTYPE" speedFactor="1.06" vaporized=""/>
    <tripinfo id="heavy_2883" depart="11.00" departLane="63[1]_0" departPos="5.10" departSpeed="0.00" departDelay="0.60" arrival="227.00" arrivalLane="64_0" arrivalPos="60.79" arrivalSpeed="12.60" duration="216.00" routeLength="1183.24" waitingTime="81.00" waitingCount="7" stopTime="0.00" timeLoss="121.84" rerouteNo="0" devices="tripinfo_heavy_2883" vType="DEFAULT_VEHTYPE" speedFactor="0.94" vaporized=""/>
    <tripinfo id="light_17" depart="79.00" departLane="38[1][1]_0" departPos="5.10" departSpeed="0.00" departDelay="0.00" arrival="227.00" arrivalLane="2[1][0]_0" arrivalPos="284.76" arrivalSpeed="12.11" duration="148.00" routeLength="1015.15" waitingTime="34.00" waitingCount="4" stopTime="0.00" timeLoss="69.65" rerouteNo="0" devices="tripinfo_light_17" vType="DEFAULT_VEHTYPE" speedFactor="0.96" vaporized=""/>
    <tripinfo id="medium_998" depart="108.00" departLane="12_0" departPos="5.10" departSpeed="0.00" departDelay="3.00" arrival="228.00" arrivalLane="53a_0" arrivalPos="257.19" arrivalSpeed="9.62" duration="120.00" routeLength="834.40" waitingTime="21.00" waitingCount="1" stopTime="0.00" timeLoss="36.31" rerouteNo="0" devices="tripinfo_medium_998" vType="DEFAULT_VEHTYPE" speedFactor="0.73" vaporized=""/>
    <tripinfo id="heavy_3026" depart="180.00" departLane="55_0" departPos="5.10" departSpeed="0.00" departDelay="0.60" arrival="229.00" arrivalLane="53a_0" arrivalPos="257.19" arrivalSpeed="10.97" duration="49.00" routeLength="434.27" waitingTime="7.00" waitingCount="1" stopTime="0.00" timeLoss="24.23" rerouteNo="0" devices="tripinfo_heavy_3026" vType="DEFAULT_VEHTYPE" speedFactor="1.26" vaporized=""/>
    <tripinfo id="heavy_2874" depart="1.00" departLane="63[0]_0" departPos="5.10" departSpeed="0.00" departDelay="0.80" arrival="231.00" arrivalLane="67_0" arrivalPos="245.60" arrivalSpeed="14.71" duration="230.00" routeLength="1471.57" waitingTime="72.00" waitingCount="4" stopTime="0.00" timeLoss="127.87" rerouteNo="0" devices="tripinfo_heavy_2874" vType="DEFAULT_VEHTYPE" speedFactor="1.06" vaporized=""/>
    <tripinfo id="medium_1034" depart="186.00" departLane="2[1][0]_0" departPos="5.10" departSpeed="0.00" departDelay="1.00" arrival="231.00" arrivalLane="21_1" arrivalPos="90.26" arrivalSpeed="12.85" duration="45.00" routeLength="444.18" waitingTime="0.00" waitingCount="0" stopTime="0.00" timeLoss="12.15" rerouteNo="0" devices="tripinfo_medium_1034" vType="DEFAULT_VEHTYPE" speedFactor="0.97" vaporized=""/>
    <tripinfo id="heavy_2986" depart="145.00" departLane="54_0" departPos="5.10" departSpeed="0.00" departDelay="0.80" arrival="232.00" arrivalLane="34[1][2]_0" arrivalPos="184.36" arrivalSpeed="13.37" duration="87.00" routeLength="797.55" waitingTime="11.00" waitingCount="1" stopTime="0.00" timeLoss="29.22" rerouteNo="0" devices="tripinfo_heavy_2986" vType="DEFAULT_VEHTYPE" speedFactor="1.03" vaporized=""/>
    <tripinfo id="medium_985" depart="71.00" departLane="71_0" departPos="5.10" departSpeed="0.00" departDelay="0.50" arrival="237.00" arrivalLane="21_0" arrivalPos="90.26" arrivalSpeed="14.22" duration="166.00" routeLength="1031.54" waitingTime="52.00" waitingCount="4" stopTime="0.00" timeLoss="94.93" rerouteNo="0" devices="tripinfo_medium_985" vType="DEFAULT_VEHTYPE" speedFactor="1.06" vaporized=""/>
    <tripinfo id="heavy_2949" depart="95.00" departLane="71_0" departPos="5.10" departSpeed="0.00" departDelay="0.60" arrival="238.00" arrivalLane="44_0" arrivalPos="123.23" arrivalSpeed="16.57" duration="143.00" routeLength="1087.33" waitingTime="33.00" waitingCount="3" stopTime="0.00" timeLoss="77.21" rerouteNo="0" devices="tripinfo_heavy_2949" vType="DEFAULT_VEHTYPE" speedFactor="1.23" vaporized=""/>
    <tripinfo id="heavy_2934" depart="87.00" departLane="51_0" departPos="5.10" departSpeed="0.00" departDelay="10.80" arrival="240.00" arrivalLane="44_1" arrivalPos="123.23" arrivalSpeed="12.34" duration="153.00" routeLength="1000.01" waitingTime="29.00" waitingCount="6" stopTime="0.00" timeLoss="70.63" rerouteNo="0" devices="tripinfo_heavy_2934" vType="DEFAULT_VEHTYPE" speedFactor="0.89" vaporized=""/>
    <tripinfo id="heavy_3034" depart="187.00" departLane="22[0]_0" departPos="5.10" departSpeed="0.00" departDelay="0.40" arrival="240.00" arrivalLane="25_1" arrivalPos="22.66" arrivalSpeed="7.79" duration="53.00" routeLength="274.44" waitingTime="18.00" waitingCount="1" stopTime="0.00" timeLoss="33.53" rerouteNo="0" devices="tripinfo_heavy_3034" vType="DEFAULT_VEHTYPE" speedFactor="1.04" vaporized=""/>
    <tripinfo id="medium_992" depart="84.00" departLane="17[0]_0" departPos="5.10" departSpeed="0.00" departDelay="0.00" arrival="241.00" arrivalLane="4[1][1][1]_0" arrivalPos="171.54" arrivalSpeed="13.19" duration="157.00" routeLength="963.03" waitingTime="65.00" waitingCount="4" stopTime="0.00" timeLoss="88.47" rerouteNo="0" devices="tripinfo_medium_992" vType="DEFAULT_VEHTYPE" speedFactor="1.03" vaporized=""/>
    <tripinfo id="heavy_2877" depart="2.00" departLane="26_0" departPos="5.10" departSpeed="0.00" departDelay="0.80" arrival="243.00" arrivalLane="33_0" arrivalPos="180.06" arrivalSpeed="11.04" duration="241.00" routeLength="1008.97" waitingTime="103.00" waitingCount="5" stopTime="0.00" timeLoss="150.75" rerouteNo="0" devices="tripinfo_heavy_2877" vType="DEFAULT_VEHTYPE" speedFactor="0.83" vaporized=""/>
    <tripinfo id="light_11" depart="39.00" departLane="39[1][0]_0" departPos="5.10" departSpeed="0.00" departDelay="0.00" arrival="243.00" arrivalLane="2[1][1][1]b_0" arrivalPos="325.74" arrivalSpeed="12.66" duration="204.00" routeLength="1340.07" waitingTime="75.00" waitingCount="3" stopTime="0.00" timeLoss="105.86" rerouteNo="0" devices="tripinfo_light_11" vType="DEFAULT_VEHTYPE" speedFactor="0.99" vaporized=""/>
    <tripinfo id="medium_973" depart="39.00" departLane="52_0" departPos="5.10" departSpeed="0.00" departDelay="0.50" arrival="244.00" arrivalLane="4[1][1][1]_0" arrivalPos="171.54" arrivalSpeed="13.24" duration="205.00" routeLength="1594.78" waitingTime="61.00" waitingCount="3" stopTime="0.00" timeLoss="89.96" rerouteNo="0" devices="tripinfo_medium_973" vType="DEFAULT_VEHTYPE" speedFactor="1.02" vaporized=""/>
    <tripinfo id="heavy_2923" depart="54.00" departLane="52_0" departPos="5.10" departSpeed="0.00" departDelay="0.20" arrival="248.00" arrivalLane="33_0" arrivalPos="180.06" arrivalSpeed="12.53" duration="194.00" routeLength="1140.69" waitingTime="84.00" waitingCount="4" stopTime="0.00" timeLoss="107.77" rerouteNo="0" devices="tripinfo_heavy_2923" vType="DEFAULT_VEHTYPE" speedFactor="0.97" vaporized=""/>
    <tripinfo id="light_12" depart="41.00" departLane="46_0" departPos="5.10" departSpeed="0.00" departDelay="0.00" arrival="249.00" arrivalLane="64_0" arrivalPos="60.79" arrivalSpeed="11.79" duration="208.00" routeLength="1233.83" waitingTime="66.00" waitingCount="4" stopTime="0.00" timeLoss="104.40" rerouteNo="0" devices="tripinfo_light_12" vType="DEFAULT_VEHTYPE" speedFactor="0.88" vaporized=""/>
    <tripinfo id="medium_1018" depart="156.00" departLane="45_0" departPos="5.10" departSpeed="0.00" departDelay="0.00" arrival="249.00" arrivalLane="30_0" arrivalPos="97.00" arrivalSpeed="14.51" duration="93.00" routeLength="1104.54" waitingTime="0.00" waitingCount="0" stopTime="0.00" timeLoss="15.83" rerouteNo="0" devices="tripinfo_medium_1018" vType="DEFAULT_VEHTYPE" speedFactor="1.06" vaporized=""/>